LAMMPS (10 Sep 2025)
  using 8 OpenMP thread(s) per MPI task
Loaded 1 plugins from C:\Users\harsh\Downloads\LAMMPS 64-bit 10Sep2025\plugins
using multi-threaded neighbor list subroutines
Reading data file ...
  orthogonal box = (0 0 0) to (15.103801 26.16055 24.664403)
  1 by 1 by 1 MPI processor grid
  reading atoms ...
  432 atoms
  read_data CPU = 0.005 seconds
=== STAGE 1: Energy Minimization ===
Switching to 'neigh_modify every 1 delay 0 check yes' setting during minimization
No /omp style for force computation currently active
Neighbor list info ...
  update: every = 1 steps, delay = 0 steps, check = yes
  max neighbors/atom: 4000, page size: 100000
  master list distance cutoff = 8
  ghost atom cutoff = 8
  binsize = 4, bins = 4 7 7
  2 neighbor lists, perpetual/occasional/extra = 2 0 0
  (1) pair meam, perpetual
      attributes: full, newton on, omp
      pair build: full/bin/atomonly/omp
      stencil: full/bin/3d
      bin: standard
  (2) pair meam, perpetual, half/full from (1)
      attributes: half, newton on, omp
      pair build: halffull/newton/omp
      stencil: none
      bin: none
Setting up cg style minimization ...
  Unit style    : metal
  Current step  : 0
Per MPI rank memory allocation (min/avg/max) = 19.46 | 19.46 | 19.46 Mbytes
   Step          Temp          PotEng         KinEng         TotEng         Press          Volume           Lx             Ly             Lz      
         0   0             -1524.8913      0             -1524.8913     -163190.57      9745.4915      15.103801      26.16055       24.664403    
       398   0             -2027.8855      0             -2027.8855     -22953.303      9745.4915      15.103801      26.16055       24.664403    
Loop time of 11.0485 on 8 procs for 398 steps with 432 atoms

96.7% CPU use with 1 MPI tasks x 8 OpenMP threads

Minimization stats:
  Stopping criterion = energy tolerance
  Energy initial, next-to-last, final = 
     -1524.89125208193  -2027.88543616341  -2027.88554228759
  Force two-norm initial, final = 13.43353 0.44778194
  Force max component initial, final = 1.3584747 0.21516292
  Final line search alpha, max atom move = 1 0.21516292
  Iterations, force evaluations = 398 778

MPI task timing breakdown:
Section |  min time  |  avg time  |  max time  |%varavg| %total
---------------------------------------------------------------
Pair    | 10.83      | 10.83      | 10.83      |   0.0 | 98.02
Neigh   | 0.016214   | 0.016214   | 0.016214   |   0.0 |  0.15
Comm    | 0.014592   | 0.014592   | 0.014592   |   0.0 |  0.13
Output  | 0          | 0          | 0          |   0.0 |  0.00
Modify  | 0.16946    | 0.16946    | 0.16946    |   0.0 |  1.53
Other   |            | 0.01871    |            |       |  0.17

Nlocal:            432 ave         432 max         432 min
Histogram: 1 0 0 0 0 0 0 0 0 0
Nghost:           2496 ave        2496 max        2496 min
Histogram: 1 0 0 0 0 0 0 0 0 0
Neighs:          28434 ave       28434 max       28434 min
Histogram: 1 0 0 0 0 0 0 0 0 0
FullNghs:        56868 ave       56868 max       56868 min
Histogram: 1 0 0 0 0 0 0 0 0 0

Total # of neighbors = 56868
Ave neighs/atom = 131.63889
Neighbor list builds = 21
Dangerous builds = 0
Minimized PE/atom: -4.69417949603609 eV/atom
=== STAGE 2: NPT Equilibration at 200 K ===
No /omp style for force computation currently active
Setting up Verlet run ...
  Unit style    : metal
  Current step  : 0
  Time step     : 0.002
Per MPI rank memory allocation (min/avg/max) = 18.49 | 18.49 | 18.49 Mbytes
   Step          Temp          PotEng         KinEng         TotEng         Press          Volume           Lx             Ly             Lz      
         0   200           -2027.8855      11.142224     -2016.7433     -21732.102      9745.4915      15.103801      26.16055       24.664403    
       500   239.58334     -2038.7932      13.347457     -2025.4457     -1800.5481      7808.8511      14.028591      24.298232      22.908593    
      1000   205.14581     -2050.7487      11.428903     -2039.3198     -891.14499      7303.8202      13.719397      23.762693      22.403682    
      1500   218.38283     -2057.9196      12.166352     -2045.7532     -1144.3716      6904.3169      13.464552      23.321288      21.987521    
      2000   330.52164     -2082.5185      18.413731     -2064.1047     -7709.9466      5968.9827      12.826804      22.216675      20.946082    
      2500   282.50261     -2149.5045      15.738538     -2133.766      -257.52627      5320.0907      12.34406       21.380539      20.157765    
      3000   179.90464     -2166.8197      10.02269      -2156.797       1525.8753      5270.1209      12.30529       21.313388      20.094455    
      3500   193.27262     -2171.7489      10.767434     -2160.9815     -1894.995       5279.182       12.312339      21.325596      20.105965    
      4000   206.394       -2174.5635      11.498441     -2163.0651     -1097.7362      5274.0971      12.308384      21.318747      20.099507    
      4500   201.30969     -2173.6701      11.215189     -2162.4549     -553.7114       5274.8552      12.308974      21.319768      20.10047     
      5000   206.75558     -2174.3757      11.518585     -2162.8571     -2310.5661      5277.0397      12.310673      21.322711      20.103244    
      5500   188.53589     -2174.8067      10.503546     -2164.3031      301.4406       5259.5164      12.297031      21.299083      20.080968    
      6000   196.19531     -2175.1205      10.930261     -2164.1903     -1943.9332      5272.2837      12.306973      21.316303      20.097203    
      6500   198.47317     -2174.4402      11.057163     -2163.3831     -2664.1698      5274.4032      12.308622      21.319159      20.099896    
      7000   212.51996     -2174.6669      11.839726     -2162.8272      2642.3138      5259.2853      12.296851      21.298771      20.080674    
      7500   194.17503     -2175.2861      10.817709     -2164.4684      7105.8151      5237.3888      12.279762      21.269171      20.052767    
      8000   187.35553     -2175.3652      10.437787     -2164.9274     -2915.8983      5270.5571      12.30563       21.313976      20.095009    
      8500   199.25272     -2176.2337      11.100593     -2165.1331     -1117.626       5265.0183      12.301318      21.306507      20.087967    
      9000   200.34904     -2175.4503      11.16167      -2164.2886      661.38273      5256.176       12.294427      21.294573      20.076716    
      9500   202.59038     -2175.2248      11.286538     -2163.9382     -147.77391      5267.7688      12.303459      21.310217      20.091465    
     10000   194.70095     -2175.8718      10.847009     -2165.0248     -3485.5076      5272.9079      12.307459      21.317144      20.097996    
     10500   197.00518     -2176.7746      10.97538      -2165.7992     -1119.2189      5265.4799      12.301677      21.30713       20.088555    
     11000   193.19047     -2176.2875      10.762858     -2165.5246      846.80232      5258.5459      12.296275      21.297773      20.079733    
     11500   208.15637     -2176.2858      11.596625     -2164.6892      453.37397      5261.1921      12.298337      21.301345      20.0831      
     12000   203.89845     -2176.2153      11.359411     -2164.8559      163.09592      5259.626       12.297117      21.299231      20.081107    
     12500   199.39158     -2176.672       11.108329     -2165.5637     -2072.6319      5267.1068      12.302944      21.309324      20.090623    
     13000   191.83199     -2176.6539      10.687175     -2165.9667      3378.6785      5246.4443      12.286835      21.281422      20.064317    
     13500   200.74078     -2176.5979      11.183494     -2165.4144      6562.9403      5238.4819      12.280616      21.270651      20.054162    
     14000   196.42882     -2176.1359      10.94327      -2165.1926     -2486.1744      5273.219       12.307701      21.317563      20.098392    
     14500   198.05234     -2175.4978      11.033718     -2164.4641     -1735.6688      5269.7254      12.304982      21.312855      20.093952    
     15000   210.6623      -2175.3466      11.736233     -2163.6103      2456.8241      5252.154       12.291291      21.28914       20.071594    
     15500   196.86315     -2176.3694      10.967467     -2165.402      -1061.8411      5263.6377      12.300242      21.304644      20.086211    
     16000   188.01282     -2176.2117      10.474405     -2165.7373      118.77257      5263.5471      12.300172      21.304522      20.086096    
     16500   211.45884     -2175.3179      11.78061      -2163.5373      3444.8784      5254.1684      12.292862      21.291861      20.074159    
     17000   188.83798     -2175.2015      10.520376     -2164.6812      342.31918      5263.6419      12.300246      21.30465       20.086217    
     17500   192.60329     -2175.7239      10.730146     -2164.9937     -3481.7825      5273.5598      12.307966      21.318023      20.098825    
     18000   191.47435     -2176.3546      10.667251     -2165.6873      5914.4918      5245.2142      12.285875      21.279759      20.062749    
     18500   206.56384     -2176.6715      11.507904     -2165.1636      5825.6294      5244.6627      12.285444      21.279013      20.062046    
     19000   198.90702     -2175.6818      11.081333     -2164.6005     -5314.9673      5277.1969      12.310795      21.322923      20.103444    
     19500   199.24219     -2176.4122      11.100006     -2165.3122      873.6701       5258.3473      12.29612       21.297504      20.07948     
     20000   192.25673     -2177.1903      10.710838     -2166.4795     -464.29733      5262.5231      12.299374      21.303141      20.084794    
Loop time of 449.278 on 8 procs for 20000 steps with 432 atoms

Performance: 7.692 ns/day, 3.120 hours/ns, 44.516 timesteps/s, 19.231 katom-step/s
95.9% CPU use with 1 MPI tasks x 8 OpenMP threads

MPI task timing breakdown:
Section |  min time  |  avg time  |  max time  |%varavg| %total
---------------------------------------------------------------
Pair    | 422.61     | 422.61     | 422.61     |   0.0 | 94.06
Neigh   | 0.022541   | 0.022541   | 0.022541   |   0.0 |  0.01
Comm    | 0.38707    | 0.38707    | 0.38707    |   0.0 |  0.09
Output  | 0.003942   | 0.003942   | 0.003942   |   0.0 |  0.00
Modify  | 26.202     | 26.202     | 26.202     |   0.0 |  5.83
Other   |            | 0.05536    |            |       |  0.01

Nlocal:            432 ave         432 max         432 min
Histogram: 1 0 0 0 0 0 0 0 0 0
Nghost:           2693 ave        2693 max        2693 min
Histogram: 1 0 0 0 0 0 0 0 0 0
Neighs:          37092 ave       37092 max       37092 min
Histogram: 1 0 0 0 0 0 0 0 0 0
FullNghs:        74184 ave       74184 max       74184 min
Histogram: 1 0 0 0 0 0 0 0 0 0

Total # of neighbors = 74184
Ave neighs/atom = 171.72222
Neighbor list builds = 25
Dangerous builds = 0
=== STAGE 3: NPT Production at 200 K ===
No /omp style for force computation currently active
Setting up Verlet run ...
  Unit style    : metal
  Current step  : 0
  Time step     : 0.001
Per MPI rank memory allocation (min/avg/max) = 18.9 | 18.9 | 18.9 Mbytes
   Step          Temp          PotEng         KinEng         TotEng         Press          Volume           Lx             Ly             Lz      
         0   192.25673     -2177.1903      10.710838     -2166.4795     -464.29733      5262.5231      12.299374      21.303141      20.084794    
       500   210.10146     -2176.7236      11.704988     -2165.0186      180.80314      5254.5166      12.293133      21.292331      20.074603    
      1000   200.29936     -2175.741       11.158902     -2164.5821     -29.148339      5259.3223      12.29688       21.298821      20.080721    
      1500   200.4062      -2176.7948      11.164854     -2165.63        1293.0652      5256.0316      12.294315      21.294378      20.076532    
      2000   197.05856     -2177.2783      10.978354     -2166.2999     -2656.0132      5269.9652      12.305169      21.313178      20.094257    
      2500   200.95458     -2176.5199      11.195405     -2165.3245      3094.9524      5253.074       12.292008      21.290383      20.072765    
      3000   201.08319     -2176.1079      11.20257      -2164.9053      1832.2788      5257.0151      12.295081      21.295706      20.077784    
      3500   204.46413     -2176.0026      11.390926     -2164.6116     -2731.0782      5267.3503      12.303133      21.309652      20.090933    
      4000   195.3398      -2176.5735      10.8826       -2165.6909     -2206.6127      5265.6232      12.301789      21.307323      20.088737    
      4500   198.45926     -2176.9142      11.056388     -2165.8578      798.98392      5255.7903      12.294127      21.294052      20.076225    
      5000   187.44559     -2176.1481      10.442804     -2165.7053      2419.3601      5254.0426      12.292764      21.291691      20.073999    
      5500   203.82235     -2176.3625      11.355172     -2165.0073     -214.90511      5262.4554      12.299321      21.303049      20.084708    
      6000   211.36435     -2175.8685      11.775345     -2164.0932     -1204.6968      5269.1367      12.304524      21.312061      20.093204    
      6500   204.3027      -2175.7654      11.381933     -2164.3835      364.96349      5259.7863      12.297241      21.299447      20.081311    
      7000   200.50538     -2176.6088      11.17038      -2165.4384      3629.3648      5253.622       12.292436      21.291123      20.073463    
      7500   205.94398     -2176.1813      11.47337      -2164.7079      445.08448      5261.8545      12.298853      21.302238      20.083943    
      8000   209.71989     -2175.3708      11.68373      -2163.6871     -2321.6706      5271.2569      12.306174      21.314919      20.095899    
      8500   190.78755     -2176.3925      10.628989     -2165.7635      1673.983       5257.1151      12.295159      21.295841      20.077911    
      9000   201.08444     -2176.9733      11.20264      -2165.7707      4280.9889      5245.2516      12.285904      21.27981       20.062797    
      9500   207.06558     -2176.399       11.535856     -2164.8631     -2604.8894      5268.0882      12.303708      21.310647      20.091871    
     10000   207.82939     -2176.0165      11.578408     -2164.4381     -689.33106      5262.8293      12.299613      21.303554      20.085183    
     10500   193.26835     -2176.0297      10.767197     -2165.2625     -1364.2662      5267.3444      12.303129      21.309644      20.090925    
     11000   200.39003     -2176.8264      11.163953     -2165.6624     -1148.5249      5265.4327      12.30164       21.307066      20.088494    
     11500   193.44498     -2176.8764      10.777037     -2166.0994      763.06013      5256.7952      12.29491       21.295409      20.077504    
     12000   192.06243     -2175.8164      10.700014     -2165.1164     -2350.6913      5267.3635      12.303144      21.30967       20.09095     
     12500   199.56225     -2175.9077      11.117837     -2164.7899     -9517.6336      5292.9102      12.323002      21.344065      20.123378    
     13000   205.15708     -2176.6668      11.429531     -2165.2373     -500.59089      5260.8168      12.298045      21.300838      20.082623    
     13500   194.06222     -2176.1088      10.811424     -2165.2974     -1983.6669      5268.9324      12.304365      21.311786      20.092944    
     14000   204.12356     -2175.9652      11.371953     -2164.5933      3214.4078      5255.7937      12.294129      21.294056      20.076229    
     14500   195.90043     -2175.8238      10.913833     -2164.9099      2038.7278      5258.8051      12.296477      21.298123      20.080063    
     15000   193.4873      -2176.1421      10.779395     -2165.3627     -744.3345       5266.5575      12.302516      21.308583      20.089925    
     15500   207.38203     -2176.2574      11.553486     -2164.7039     -1943.1451      5266.7804      12.30269       21.308884      20.090208    
     16000   202.34204     -2175.4824      11.272702     -2164.2097      2685.5205      5251.8319      12.291039      21.288705      20.071183    
     16500   211.6008      -2176.2399      11.788518     -2164.4514     -517.12102      5260.0721      12.297464      21.299833      20.081675    
     17000   203.5825      -2176.5973      11.34181      -2165.2555     -1525.4037      5269.1402      12.304527      21.312066      20.093208    
     17500   195.21013     -2175.781       10.875376     -2164.9056      2554.0656      5254.0535      12.292772      21.291706      20.074013    
     18000   206.67718     -2175.682       11.514218     -2164.1678      2334.9512      5257.5307      12.295483      21.296402      20.07844     
     18500   196.74768     -2175.6547      10.961034     -2164.6937      491.79661      5262.0494      12.299005      21.302501      20.084191    
     19000   190.25805     -2176.1624      10.59949      -2165.5629     -6163.6778      5279.9648      12.312947      21.32665       20.106958    
     19500   197.18883     -2176.6076      10.985611     -2165.622       3520.5592      5249.1012      12.288909      21.285014      20.067704    
     20000   194.90414     -2176.4393      10.858328     -2165.581       4959.8127      5248.3433      12.288317      21.28399       20.066738    
     20500   200.98162     -2175.9846      11.196912     -2164.7877      1868.6098      5252.651       12.291678      21.289811      20.072227    
     21000   197.35526     -2176.1262      10.994883     -2165.1313     -3274.8038      5263.3501      12.300018      21.304257      20.085846    
     21500   201.45819     -2177.0833      11.223462     -2165.8599      98.443393      5256.1373      12.294397      21.29452       20.076666    
     22000   204.54765     -2176.6014      11.395579     -2165.2058      4750.1063      5244.0585      12.284972      21.278196      20.061276    
     22500   206.38692     -2175.9102      11.498047     -2164.4122      111.08719      5261.3722      12.298477      21.301588      20.083329    
     23000   212.17863     -2176.4391      11.82071      -2164.6184     -965.20695      5263.8206      12.300385      21.304891      20.086444    
     23500   193.29906     -2176.1049      10.768908     -2165.336      -4740.6952      5274.9289      12.309031      21.319867      20.100564    
     24000   188.84787     -2176.3899      10.520927     -2165.8689      4548.483       5245.4239      12.286038      21.280043      20.063017    
     24500   199.58606     -2177.1538      11.119164     -2166.0346      3722.3261      5248.7251      12.288615      21.284506      20.067225    
     25000   197.80464     -2175.947       11.019919     -2164.9271     -6225.3231      5278.523       12.311826      21.324708      20.105128    
     25500   213.93387     -2176.5419      11.918496     -2164.6234      139.22594      5262.4901      12.299348      21.303096      20.084752    
     26000   194.98856     -2176.2108      10.863031     -2165.3478      5493.1974      5240.2427      12.281992      21.273034      20.056409    
     26500   200.56266     -2176.9251      11.173571     -2165.7515      919.5132       5259.1279      12.296728      21.298558      20.080473    
     27000   208.02942     -2176.9298      11.589552     -2165.3402      1368.8785      5251.9156      12.291105      21.288818      20.07129     
     27500   217.60393     -2175.292       12.122959     -2163.169      -1737.4424      5269.0745      12.304476      21.311977      20.093125    
     28000   187.96706     -2175.761       10.471856     -2165.2891     -3458.0044      5275.4439      12.309432      21.320561      20.101218    
     28500   186.18941     -2175.8234      10.372821     -2165.4506      3774.0991      5251.3647      12.290675      21.288073      20.070588    
     29000   206.0985      -2176.3801      11.481979     -2164.8981      5597.5598      5245.3167      12.285955      21.279898      20.06288     
     29500   202.84661     -2176.1386      11.300812     -2164.8378      1495.5366      5259.1248      12.296726      21.298554      20.080469    
     30000   200.93962     -2175.7479      11.194572     -2164.5533      1668.5984      5254.4649      12.293093      21.292262      20.074537    
     30500   207.00411     -2176.4622      11.532432     -2164.9298     -3182.2456      5272.3623      12.307034      21.316409      20.097303    
     31000   192.15263     -2175.8604      10.705039     -2165.1553     -3869.9074      5271.4903      12.306356      21.315234      20.096195    
     31500   191.38026     -2176.6356      10.662009     -2165.9736      4271.3393      5243.0726      12.284202      21.276862      20.060018    
     32000   199.22589     -2175.9584      11.099098     -2164.8593      1193.4566      5262.7526      12.299553      21.30345       20.085086    
     32500   204.74802     -2176.3388      11.406742     -2164.9321      979.78029      5255.7117      12.294065      21.293946      20.076125    
     33000   192.54364     -2176.1731      10.726823     -2165.4462      4175.0887      5245.8385      12.286362      21.280603      20.063545    
     33500   208.03543     -2176.2683      11.589887     -2164.6784      96.319075      5255.668       12.294031      21.293887      20.076069    
     34000   204.05176     -2175.8117      11.367953     -2164.4438     -3025.9947      5269.7329      12.304988      21.312865      20.093962    
     34500   207.84456     -2175.8531      11.579254     -2164.2738     -2140.6642      5273.8062      12.308158      21.318355      20.099138    
     35000   201.51381     -2176.5365      11.226561     -2165.3099     -2389.595       5268.8833      12.304327      21.311719      20.092882    
     35500   207.83599     -2176.8729      11.578776     -2165.2941     -8.6952216      5257.4857      12.295448      21.296341      20.078383    
     36000   192.69855     -2176.2953      10.735453     -2165.5598      2697.3113      5251.6174      12.290872      21.288415      20.07091     
     36500   203.33408     -2176.5766      11.32797      -2165.2487     -3857.7137      5275.8128      12.309719      21.321058      20.101686    
     37000   199.57288     -2175.8335      11.118429     -2164.715       329.39301      5264.3372      12.300787      21.305588      20.087101    
     37500   212.60879     -2175.8496      11.844674     -2164.0049      3613.5093      5250.216       12.289779      21.286521      20.069124    
     38000   198.07219     -2175.6902      11.034824     -2164.6553     -2873.5837      5272.0093      12.30676       21.315933      20.096855    
     38500   209.51188     -2177.3099      11.672142     -2165.6377     -3257.256       5269.5862      12.304874      21.312667      20.093775    
     39000   206.21804     -2176.894       11.488638     -2165.4053      3751.9703      5248.5557      12.288483      21.284277      20.067009    
     39500   213.37628     -2176.2004      11.887432     -2164.3129     -1039.0942      5262.8277      12.299611      21.303552      20.085181    
     40000   199.46492     -2176.1057      11.112414     -2164.9932     -3449.6567      5274.475       12.308678      21.319256      20.099987    
     40500   198.10669     -2176.6911      11.036746     -2165.6544     -1302.2333      5262.6782      12.299495      21.30335       20.084991    
     41000   199.20671     -2176.7087      11.09803      -2165.6106     -2796.7583      5266.7479      12.302664      21.30884       20.090167    
     41500   190.68616     -2175.9747      10.62334      -2165.3514      4344.3486      5249.0825      12.288894      21.284989      20.06768     
     42000   201.41307     -2176.1167      11.220948     -2164.8957     -2390.5085      5268.9595      12.304386      21.311822      20.092979    
     42500   208.71177     -2176.6469      11.627567     -2165.0193     -2111.2117      5263.7635      12.30034       21.304814      20.086372    
     43000   196.21709     -2175.2296      10.931474     -2164.2981      2187.6771      5253.4034      12.292265      21.290828      20.073185    
     43500   201.03302     -2176.2577      11.199775     -2165.0579     -1381.6581      5267.6689      12.303382      21.310082      20.091338    
     44000   193.38012     -2176.346       10.773424     -2165.5725      3147.8933      5250.87        12.290289      21.287405      20.069958    
     44500   193.71213     -2176.8717      10.79192      -2166.0797     -310.96481      5261.7572      12.298777      21.302107      20.083819    
     45000   189.82916     -2175.6045      10.575596     -2165.0289     -2940.7259      5276.6933      12.310403      21.322244      20.102805    
     45500   203.66433     -2176.6601      11.346368     -2165.3137     -571.54932      5259.246       12.29682       21.298718      20.080624    
     46000   213.18507     -2175.772       11.87678      -2163.8952      3651.6373      5254.5773      12.293181      21.292414      20.07468     
     46500   211.91393     -2176.6882      11.805963     -2164.8822      4261.9037      5243.7142      12.284703      21.27773       20.060836    
     47000   185.24071     -2175.7711      10.319968     -2165.4512     -4933.2178      5273.4957      12.307916      21.317936      20.098743    
     47500   196.46257     -2175.8357      10.94515      -2164.8906     -5040.669       5277.438       12.310983      21.323247      20.10375     
     48000   190.56391     -2176.7494      10.616529     -2166.1329      2348.8172      5252.8204      12.29181       21.29004       20.072442    
     48500   187.02709     -2176.6996      10.419489     -2166.2801      4839.6738      5240.0162      12.281815      21.272727      20.05612     
     49000   197.40848     -2175.765       10.997848     -2164.7671     -6935.5237      5282.3354      12.31479       21.329841      20.109967    
     49500   203.67222     -2176.2424      11.346808     -2164.8956     -3128.0254      5268.167       12.303769      21.310754      20.091971    
     50000   196.86426     -2176.1725      10.967529     -2165.205       3529.8628      5250.7014      12.290157      21.287177      20.069743    
Loop time of 1417.97 on 8 procs for 50000 steps with 432 atoms

Performance: 3.047 ns/day, 7.878 hours/ns, 35.262 timesteps/s, 15.233 katom-step/s
93.1% CPU use with 1 MPI tasks x 8 OpenMP threads

MPI task timing breakdown:
Section |  min time  |  avg time  |  max time  |%varavg| %total
---------------------------------------------------------------
Pair    | 1332       | 1332       | 1332       |   0.0 | 93.93
Neigh   | 0          | 0          | 0          |   0.0 |  0.00
Comm    | 1.2529     | 1.2529     | 1.2529     |   0.0 |  0.09
Output  | 0.01159    | 0.01159    | 0.01159    |   0.0 |  0.00
Modify  | 84.552     | 84.552     | 84.552     |   0.0 |  5.96
Other   |            | 0.1835     |            |       |  0.01

Nlocal:            432 ave         432 max         432 min
Histogram: 1 0 0 0 0 0 0 0 0 0
Nghost:           2706 ave        2706 max        2706 min
Histogram: 1 0 0 0 0 0 0 0 0 0
Neighs:          37240 ave       37240 max       37240 min
Histogram: 1 0 0 0 0 0 0 0 0 0
FullNghs:        74480 ave       74480 max       74480 min
Histogram: 1 0 0 0 0 0 0 0 0 0

Total # of neighbors = 74480
Ave neighs/atom = 172.40741
Neighbor list builds = 0
Dangerous builds = 0

=== FINAL RESULTS: HCP at 200 K ===
Atoms: 432 | PE/atom: -5.03763541779236 eV/atom
WARNING: Detected non-ASCII characters in input. Will try to continue by replacing with ASCII equivalents where known. (src/input.cpp:479)
Volume: 5250.70140958421 …³ | Area: 261.62275405705 ²
==========================================
HCP 200 432 -5.03763541779236 5250.70140958421 12.2901573438427 21.2871769447379 20.0697428956781 261.62275405705
Simulation complete!
Total wall time: 0:31:18
