LAMMPS (10 Sep 2025)
  using 8 OpenMP thread(s) per MPI task
Loaded 1 plugins from C:\Users\harsh\Downloads\LAMMPS 64-bit 10Sep2025\plugins
using multi-threaded neighbor list subroutines
Reading data file ...
  orthogonal box = (0 0 0) to (15.103801 26.16055 24.664403)
  1 by 1 by 1 MPI processor grid
  reading atoms ...
  432 atoms
  read_data CPU = 0.003 seconds
=== STAGE 1: Energy Minimization ===
Switching to 'neigh_modify every 1 delay 0 check yes' setting during minimization
No /omp style for force computation currently active
Neighbor list info ...
  update: every = 1 steps, delay = 0 steps, check = yes
  max neighbors/atom: 4000, page size: 100000
  master list distance cutoff = 8
  ghost atom cutoff = 8
  binsize = 4, bins = 4 7 7
  2 neighbor lists, perpetual/occasional/extra = 2 0 0
  (1) pair meam, perpetual
      attributes: full, newton on, omp
      pair build: full/bin/atomonly/omp
      stencil: full/bin/3d
      bin: standard
  (2) pair meam, perpetual, half/full from (1)
      attributes: half, newton on, omp
      pair build: halffull/newton/omp
      stencil: none
      bin: none
Setting up cg style minimization ...
  Unit style    : metal
  Current step  : 0
Per MPI rank memory allocation (min/avg/max) = 19.42 | 19.42 | 19.42 Mbytes
   Step          Temp          PotEng         KinEng         TotEng         Press          Volume           Lx             Ly             Lz      
         0   0             -1500.9684      0             -1500.9684     -134138.87      9745.4915      15.103801      26.16055       24.664403    
       117   0             -1760.8812      0             -1760.8812     -82489.348      9745.4915      15.103801      26.16055       24.664403    
Loop time of 1.95088 on 8 procs for 117 steps with 432 atoms

98.5% CPU use with 1 MPI tasks x 8 OpenMP threads

Minimization stats:
  Stopping criterion = energy tolerance
  Energy initial, next-to-last, final = 
     -1500.96836483322  -1760.88094472634  -1760.88122634546
  Force two-norm initial, final = 56.639624 8.5057209
  Force max component initial, final = 12.634511 3.6086583
  Final line search alpha, max atom move = 0.020135798 0.072663216
  Iterations, force evaluations = 117 226

MPI task timing breakdown:
Section |  min time  |  avg time  |  max time  |%varavg| %total
---------------------------------------------------------------
Pair    | 1.8884     | 1.8884     | 1.8884     |   0.0 | 96.80
Neigh   | 0.006947   | 0.006947   | 0.006947   |   0.0 |  0.36
Comm    | 0.002509   | 0.002509   | 0.002509   |   0.0 |  0.13
Output  | 0          | 0          | 0          |   0.0 |  0.00
Modify  | 0.047487   | 0.047487   | 0.047487   |   0.0 |  2.43
Other   |            | 0.005499   |            |       |  0.28

Nlocal:            432 ave         432 max         432 min
Histogram: 1 0 0 0 0 0 0 0 0 0
Nghost:           1906 ave        1906 max        1906 min
Histogram: 1 0 0 0 0 0 0 0 0 0
Neighs:          20253 ave       20253 max       20253 min
Histogram: 1 0 0 0 0 0 0 0 0 0
FullNghs:        40506 ave       40506 max       40506 min
Histogram: 1 0 0 0 0 0 0 0 0 0

Total # of neighbors = 40506
Ave neighs/atom = 93.763889
Neighbor list builds = 7
Dangerous builds = 0
Minimized PE/atom: -4.07611394987374 eV/atom
=== STAGE 2: NPT Equilibration at 650 K ===
No /omp style for force computation currently active
Setting up Verlet run ...
  Unit style    : metal
  Current step  : 0
  Time step     : 0.002
Per MPI rank memory allocation (min/avg/max) = 18.3 | 18.3 | 18.3 Mbytes
   Step          Temp          PotEng         KinEng         TotEng         Press          Volume           Lx             Ly             Lz      
         0   650           -1760.8812      36.21223      -1724.669      -78520.444      9745.4915      15.103801      26.16055       24.664403    
       500   1197.0441     -2042.7659      66.688673     -1976.0772     -8452.9188      5801.8272      12.705934      22.007323      20.748704    
      1000   617.00589     -2124.7933      34.374091     -2090.4192      54.919863      5387.371       12.395878      21.470291      20.242384    
      1500   636.19734     -2136.4456      35.443268     -2101.0023     -174.87936      5368.4561      12.381354      21.445134      20.218666    
      2000   712.79698     -2139.5697      39.71072      -2099.8589      193.93693      5376.9545      12.387884      21.456444      20.229329    
      2500   671.3184      -2146.1702      37.399901     -2108.7702     -565.87086      5368.6676      12.381517      21.445416      20.218932    
      3000   646.54425     -2146.3648      36.019706     -2110.3451     -7007.6928      5390.1811      12.398033      21.474023      20.245903    
      3500   643.41703     -2146.0503      35.845485     -2110.2048     -2840.2365      5368.4175      12.381324      21.445083      20.218618    
      4000   669.36878     -2146.6793      37.291286     -2109.388       3146.1282      5356.791       12.37238       21.42959       20.204011    
      4500   669.11813     -2147.7616      37.277322     -2110.4843     -2527.2034      5368.6145      12.381476      21.445345      20.218865    
      5000   634.85948     -2150.4736      35.368734     -2115.1049     -4447.3994      5370.9278      12.383254      21.448425      20.221769    
      5500   653.66045     -2149.91        36.416157     -2113.4938      5155.2448      5351.0167      12.367932      21.421887      20.196749    
      6000   686.90377     -2150.2692      38.26818      -2112.0011      4303.0796      5342.2071      12.361141      21.410125      20.185659    
      6500   710.0683      -2155.5855      39.558702     -2116.0268      12318.008      5309.6632      12.33599       21.366561      20.144587    
      7000   663.30113     -2156.2501      36.953251     -2119.2968      6485.7874      5318.3929      12.342746      21.378264      20.155621    
      7500   604.28809     -2157.3525      33.665568     -2123.6869      7302.4733      5304.2765      12.331817      21.359333      20.137772    
      8000   617.63521     -2151.5691      34.409151     -2117.16       -581.11277      5357.0408      12.372572      21.429923      20.204325    
      8500   711.77267     -2156.2508      39.653655     -2116.5972     -362.45986      5348.7002      12.366147      21.418796      20.193834    
      9000   621.62303     -2158.2576      34.631317     -2123.6262      477.47516      5331.0288      12.352514      21.395181      20.17157     
      9500   645.46447     -2158.0791      35.95955      -2122.1195     -815.45506      5334.4161      12.355129      21.399712      20.175842    
     10000   665.90952     -2155.1225      37.098567     -2118.0239      7077.3171      5334.3797      12.355101      21.399663      20.175796    
     10500   631.19541     -2156.2453      35.164605     -2121.0807      8460.2984      5311.6559      12.337533      21.369233      20.147106    
     11000   689.26761     -2158.1441      38.399872     -2119.7442      761.00539      5334.5995      12.355271      21.399957      20.176073    
     11500   670.51638     -2156.2322      37.35522      -2118.8769      4644.0707      5332.202       12.35342       21.396751      20.17305     
     12000   645.18456     -2157.2527      35.943956     -2121.3088      3692.8224      5322.4804      12.345908      21.383739      20.160783    
     12500   618.61143     -2156.2902      34.463537     -2121.8266      5922.46        5326.3418      12.348893      21.388909      20.165657    
     13000   635.19166     -2159.2321      35.38724      -2123.8448      11158.585      5303.9613      12.331572      21.35891       20.137373    
     13500   686.45877     -2158.1836      38.243389     -2119.9402      7481.3899      5319.218       12.343385      21.379369      20.156663    
     14000   678.2279      -2157.5531      37.784837     -2119.7682      7488.1613      5317.1433      12.34178       21.376589      20.154042    
     14500   638.9107      -2156.8079      35.594432     -2121.2134      8477.8725      5316.6824      12.341423      21.375972      20.153459    
     15000   660.23043     -2158.8092      36.782179     -2122.0271      6122.3869      5326.7534      12.349211      21.38946       20.166177    
     15500   658.70743     -2155.173       36.69733      -2118.4757     -3545.4857      5368.5595      12.381433      21.445272      20.218796    
     16000   648.16316     -2155.3015      36.109897     -2119.1916     -555.94216      5348.7238      12.366166      21.418827      20.193864    
     16500   643.89204     -2159.5157      35.871948     -2123.6437     -4325.8439      5343.1986      12.361906      21.41145       20.186908    
     17000   661.71507     -2157.3454      36.86489      -2120.4805     -7142.0022      5371.7655      12.383898      21.44954       20.22282     
     17500   650.33211     -2156.7794      36.230732     -2120.5486     -2599.3692      5362.7344      12.376954      21.437513      20.211481    
     18000   653.93988     -2158.2507      36.431725     -2121.819      -3581.0368      5335.2981      12.35581       21.400891      20.176954    
     18500   629.8548      -2159.7997      35.089918     -2124.7098      2862.2217      5316.2231      12.341068      21.375356      20.152879    
     19000   599.52203     -2159.7398      33.400045     -2126.3397      2676.2965      5325.2419      12.348042      21.387437      20.164269    
     19500   637.57099     -2159.5865      35.519796     -2124.0667     -3761.7909      5341.6591      12.360719      21.409393      20.184969    
     20000   654.97659     -2156.5177      36.489481     -2120.0283     -715.8204       5335.7268      12.356141      21.401464      20.177494    
Loop time of 376.623 on 8 procs for 20000 steps with 432 atoms

Performance: 9.176 ns/day, 2.615 hours/ns, 53.104 timesteps/s, 22.941 katom-step/s
95.3% CPU use with 1 MPI tasks x 8 OpenMP threads

MPI task timing breakdown:
Section |  min time  |  avg time  |  max time  |%varavg| %total
---------------------------------------------------------------
Pair    | 348.19     | 348.19     | 348.19     |   0.0 | 92.45
Neigh   | 0.053097   | 0.053097   | 0.053097   |   0.0 |  0.01
Comm    | 0.31589    | 0.31589    | 0.31589    |   0.0 |  0.08
Output  | 0.003547   | 0.003547   | 0.003547   |   0.0 |  0.00
Modify  | 28.006     | 28.006     | 28.006     |   0.0 |  7.44
Other   |            | 0.05752    |            |       |  0.02

Nlocal:            432 ave         432 max         432 min
Histogram: 1 0 0 0 0 0 0 0 0 0
Nghost:           2683 ave        2683 max        2683 min
Histogram: 1 0 0 0 0 0 0 0 0 0
Neighs:          36791 ave       36791 max       36791 min
Histogram: 1 0 0 0 0 0 0 0 0 0
FullNghs:        73582 ave       73582 max       73582 min
Histogram: 1 0 0 0 0 0 0 0 0 0

Total # of neighbors = 73582
Ave neighs/atom = 170.3287
Neighbor list builds = 55
Dangerous builds = 0
=== STAGE 3: NPT Production at 650 K ===
No /omp style for force computation currently active
Setting up Verlet run ...
  Unit style    : metal
  Current step  : 0
  Time step     : 0.001
Per MPI rank memory allocation (min/avg/max) = 18.89 | 18.89 | 18.89 Mbytes
   Step          Temp          PotEng         KinEng         TotEng         Press          Volume           Lx             Ly             Lz      
         0   654.97659     -2156.5177      36.489481     -2120.0283     -715.8204       5335.7268      12.356141      21.401464      20.177494    
       500   670.94628     -2161.2225      37.37917      -2123.8434     -2428.9149      5337.4738      12.35749       21.4038        20.179696    
      1000   625.08758     -2161.5112      34.824331     -2126.6869     -2991.5798      5334.0502      12.354847      21.399223      20.175381    
      1500   602.13082     -2157.9254      33.545384     -2124.38       -1640.3044      5325.3796      12.348149      21.387621      20.164443    
      2000   661.11924     -2158.7903      36.831695     -2121.9586     -1853.6532      5338.6106      12.358367      21.405319      20.181129    
      2500   687.85149     -2157.7125      38.320978     -2119.3915     -444.83704      5340.4099      12.359755      21.407724      20.183396    
      3000   651.32425     -2158.6346      36.286005     -2122.3486     -2307.1435      5340.0675      12.359491      21.407266      20.182964    
      3500   660.19154     -2160.7031      36.780012     -2123.9231     -6765.4788      5345.3578      12.363571      21.414333      20.189627    
      4000   685.92508     -2156.5457      38.213656     -2118.3321     -1138.8406      5352.8141      12.369317      21.424286      20.19901     
      4500   693.91547     -2158.4679      38.65881      -2119.809      -6839.8508      5360.9642      12.375592      21.435154      20.209257    
      5000   594.48466     -2157.497       33.119408     -2124.3776     -6046.9768      5352.1747      12.368825      21.423433      20.198206    
      5500   669.29923     -2158.9687      37.287412     -2121.6813     -6249.0457      5357.9973      12.373308      21.431199      20.205528    
      6000   632.66962     -2154.8251      35.246735     -2119.5784     -9993.3924      5368.9046      12.381699      21.445731      20.219229    
      6500   609.22421     -2157.6887      33.940565     -2123.7481     -6387.7393      5354.5378      12.370645      21.426585      20.201178    
      7000   624.12759     -2159.0668      34.770849     -2124.296       1292.4179      5325.819       12.348489      21.38821       20.164997    
      7500   692.3205      -2158.7222      38.569952     -2120.1523      3369.0584      5328.9117      12.350878      21.392349      20.1689      
      8000   643.92581     -2158.7942      35.87383      -2122.9203      3814.5466      5316.3463      12.341163      21.375521      20.153035    
      8500   649.89039     -2158.7349      36.206123     -2122.5287      3321.5875      5325.6447      12.348354      21.387976      20.164777    
      9000   629.49591     -2154.904       35.069924     -2119.8341     -2189.553       5353.5289      12.369868      21.425239      20.199909    
      9500   682.33301     -2161.4184      38.013538     -2123.4048     -2405.2969      5327.7679      12.349995      21.390818      20.167457    
     10000   664.47842     -2157.3771      37.018839     -2120.3583      49.059913      5324.4138      12.347402      21.386328      20.163224    
     10500   662.25681     -2157.9611      36.89507      -2121.066       8827.8585      5311.145       12.337137      21.368548      20.14646     
     11000   639.44055     -2157.965       35.623951     -2122.341       8525.1444      5308.4511      12.335051      21.364935      20.143054    
     11500   679.82544     -2162.6019      37.873838     -2124.728       9756.0774      5284.5547      12.316514      21.332828      20.112783    
     12000   648.04574     -2159.6226      36.103355     -2123.5192      9390.4709      5293.5542      12.323502      21.344931      20.124194    
     12500   642.26328     -2159.0111      35.781208     -2123.2299      4105.3368      5313.4128      12.338893      21.371589      20.149327    
     13000   696.60197     -2155.5403      38.808477     -2116.7318      200.01407      5331.2724      12.352702      21.395507      20.171878    
     13500   665.40523     -2161.3753      37.070472     -2124.3048      5328.6249      5310.5325      12.336663      21.367727      20.145686    
     14000   652.86348     -2160.0031      36.371757     -2123.6313      5041.6493      5313.4561      12.338926      21.371647      20.149382    
     14500   678.59576     -2157.9504      37.805332     -2120.1451     -1417.5846      5341.5561      12.360639      21.409255      20.184839    
     15000   651.56613     -2159.5275      36.29948      -2123.228      -5892.9331      5354.5923      12.370687      21.426658      20.201247    
     15500   615.92642     -2161.6246      34.313952     -2127.3107     -1924.5626      5331.6014      12.352956      21.395947      20.172293    
     16000   640.84947     -2159.9621      35.702444     -2124.2597     -4650.0217      5345.1768      12.363431      21.414092      20.189399    
     16500   672.18956     -2158.5573      37.448435     -2121.1088      689.24909      5324.8833      12.347765      21.386957      20.163816    
     17000   633.01086     -2155.3355      35.265746     -2120.0697      2889.8639      5327.7717      12.349998      21.390823      20.167462    
     17500   639.80415     -2157.4924      35.644207     -2121.8482      2412.1923      5334.7039      12.355352      21.400097      20.176205    
     18000   680.54635     -2160.1478      37.914001     -2122.2338      2093.1777      5320.9274      12.344707      21.381659      20.158822    
     18500   591.17533     -2159.1747      32.935041     -2126.2397      2681.2365      5319.3364      12.343476      21.379528      20.156812    
     19000   655.28593     -2153.8787      36.506715     -2117.3719      4115.5277      5339.7199      12.359223      21.406802      20.182526    
     19500   630.72822     -2157.1903      35.138577     -2122.0517      1941.5908      5326.8501      12.349285      21.38959       20.166299    
     20000   658.83783     -2159.8465      36.704595     -2123.1419      2083.9928      5318.6953      12.34298       21.378669      20.156003    
     20500   621.02727     -2159.3438      34.598126     -2124.7457      1048.2862      5325.6374      12.348348      21.387966      20.164768    
     21000   631.97584     -2161.0633      35.208083     -2125.8553      1029.7869      5318.5321      12.342854      21.378451      20.155796    
     21500   648.28739     -2156.4103      36.116818     -2120.2935      6785.1301      5313.565       12.33901       21.371793      20.14952     
     22000   657.68108     -2158.9413      36.640151     -2122.3011      8603.8579      5311.838       12.337674      21.369477      20.147337    
     22500   691.43505     -2161.2444      38.520623     -2122.7238      1694.0773      5330.2101      12.351881      21.394086      20.170538    
     23000   659.02454     -2159.0655      36.714997     -2122.3505      4081.4995      5317.6342      12.342159      21.377247      20.154662    
     23500   679.34226     -2156.4015      37.84692      -2118.5546      489.15723      5333.4265      12.354365      21.398388      20.174594    
     24000   633.41878     -2157.8694      35.288471     -2122.581       4624.2285      5313.5319      12.338985      21.371749      20.149478    
     24500   640.74582     -2157.4814      35.696669     -2121.7848      435.46681      5333.1463      12.354149      21.398014      20.174241    
     25000   645.7879      -2157.1983      35.977569     -2121.2207     -5165.8843      5352.1711      12.368822      21.423428      20.198201    
     25500   676.15363     -2157.5026      37.669278     -2119.8333     -586.43029      5336.171       12.356484      21.402058      20.178054    
     26000   661.66716     -2159.7727      36.86222      -2122.9105     -2702.3079      5348.1278      12.365706      21.418032      20.193114    
     26500   650.84494     -2161.0987      36.259302     -2124.8394     -1412.8435      5330.9182      12.352428      21.395033      20.171431    
     27000   746.56488     -2157.0215      41.591967     -2115.4296     -113.96862      5345.5092      12.363688      21.414535      20.189818    
     27500   603.04235     -2157.8776      33.596166     -2124.2814     -1211.7489      5327.7982      12.350018      21.390859      20.167495    
     28000   628.65799     -2160.7104      35.023242     -2125.6872      1795.8962      5322.9187      12.346247      21.384326      20.161336    
     28500   670.38235     -2160.0781      37.347753     -2122.7304     -1881.3661      5332.7129      12.353814      21.397434      20.173694    
     29000   701.66388     -2157.2194      39.090482     -2118.1289      885.03986      5324.5345      12.347496      21.38649       20.163376    
     29500   686.98223     -2159.138       38.272551     -2120.8654      6843.7986      5308.3469      12.33497       21.364795      20.142922    
     30000   629.89065     -2159.0199      35.091915     -2123.928       6671.0871      5312.4372      12.338137      21.370281      20.148094    
     30500   637.82427     -2160.3849      35.533906     -2124.851       5999.5619      5301.5394      12.329695      21.355658      20.134308    
     31000   631.25946     -2158.7204      35.168173     -2123.5522      706.76339      5329.1388      12.351054      21.392653      20.169186    
     31500   656.28815     -2157.9967      36.56255      -2121.4342     -6687.2037      5368.6241      12.381483      21.445358      20.218877    
     32000   657.0806      -2160.8746      36.606698     -2124.2679     -2170.5304      5337.7972      12.357739      21.404232      20.180104    
     32500   655.67994     -2158.3612      36.528666     -2121.8325     -1117.5571      5342.6141      12.361455      21.410669      20.186172    
     33000   646.21998     -2159.0517      36.00164      -2123.0501      3094.8594      5323.1594      12.346433      21.384649      20.16164     
     33500   612.13552     -2159.4776      34.102757     -2125.3748      2021.4183      5318.5754      12.342888      21.378509      20.155851    
     34000   664.57714     -2159.0831      37.024339     -2122.0587      5842.4356      5315.1913      12.340269      21.373973      20.151575    
     34500   622.88201     -2156.9381      34.701456     -2122.2367      7772.4881      5313.3446      12.33884       21.371498      20.149241    
     35000   644.28588     -2158.4326      35.89389      -2122.5387     -215.53354      5333.8194      12.354669      21.398914      20.175089    
     35500   680.17049     -2157.3915      37.893062     -2119.4984     -3250.6419      5355.3138      12.371242      21.42762       20.202154    
     36000   619.8882      -2157.5179      34.534667     -2122.9832     -3318.694       5349.3444      12.366644      21.419655      20.194645    
     36500   628.89407     -2161.9357      35.036394     -2126.8993     -4482.7031      5337.5607      12.357557      21.403916      20.179806    
     37000   624.92174     -2159.5986      34.815092     -2124.7835     -4479.5384      5343.6066      12.362221      21.411994      20.187422    
     37500   652.19063     -2159.3179      36.334272     -2122.9837     -2584.5889      5337.0575      12.357168      21.403243      20.179171    
     38000   655.60049     -2158.2498      36.524239     -2121.7255     -3690.8589      5344.6374      12.363016      21.413371      20.18872     
     38500   669.44249     -2160.8592      37.295392     -2123.5638     -8255.5882      5345.8368      12.36394       21.414973      20.19023     
     39000   656.37503     -2159.2369      36.56739      -2122.6695     -4573.9679      5344.9187      12.363233      21.413747      20.189074    
     39500   643.95622     -2158.9462      35.875524     -2123.0707     -5900.5938      5348.9684      12.366354      21.419154      20.194172    
     40000   686.55798     -2159.6198      38.248916     -2121.3709     -5956.6592      5350.0046      12.367153      21.420537      20.195476    
     40500   617.98446     -2158.1365      34.428608     -2123.7078      707.26166      5334.3601      12.355086      21.399637      20.175771    
     41000   589.74273     -2158.8035      32.85523      -2125.9482     -1694.9837      5331.6451      12.35299       21.396006      20.172348    
     41500   627.34106     -2158.6441      34.949875     -2123.6943      1146.0721      5327.0575      12.349446      21.389867      20.16656     
     42000   672.3252      -2159.5766      37.455992     -2122.1206     -2818.7613      5325.2981      12.348086      21.387512      20.16434     
     42500   654.39288     -2155.9459      36.456962     -2119.4889      861.84938      5334.4903      12.355187      21.399811      20.175935    
     43000   644.55573     -2160.0703      35.908923     -2124.1614     -2065.1284      5337.0169      12.357137      21.403189      20.17912     
     43500   633.47603     -2159.1762      35.291661     -2123.8845     -1939.2783      5331.4057      12.352805      21.395686      20.172046    
     44000   657.06033     -2158.3142      36.605568     -2121.7087     -1765.0567      5351.7494      12.368497      21.422865      20.197671    
     44500   686.15405     -2161.8902      38.226413     -2123.6637     -1428.027       5326.4553      12.34898       21.389061      20.1658      
     45000   666.3353      -2161.8541      37.122288     -2124.7318     -233.85934      5322.9736      12.346289      21.3844        20.161406    
     45500   591.32756     -2159.5726      32.943522     -2126.6291      3474.1854      5318.4807      12.342814      21.378382      20.155731    
     46000   671.33762     -2159.1567      37.400973     -2121.7558      5374.1022      5317.9582      12.34241       21.377682      20.155071    
     46500   658.05265     -2160.518       36.660852     -2123.8571      11161.111      5298.0541      12.326993      21.350977      20.129894    
     47000   672.75865     -2158.9374      37.480139     -2121.4572      13812.968      5291.3719      12.321808      21.341997      20.121428    
     47500   697.67013     -2157.747       38.867986     -2118.879       9762.6882      5308.4458      12.335047      21.364928      20.143047    
     48000   665.88395     -2157.4979      37.097142     -2120.4008      7820.4809      5315.7123      12.340672      21.374672      20.152234    
     48500   702.26245     -2160.1153      39.12383      -2120.9914      321.86567      5330.3678      12.352003      21.394297      20.170737    
     49000   604.54662     -2161.8092      33.679971     -2128.1292      2241.5486      5326.7975      12.349245      21.389519      20.166232    
     49500   610.23212     -2159.4102      33.996717     -2125.4135      4656.5902      5317.4304      12.342002      21.376974      20.154405    
     50000   656.24014     -2158.738       36.559875     -2122.1782      4026.8055      5333.1174      12.354127      21.397975      20.174204    
Loop time of 980.483 on 8 procs for 50000 steps with 432 atoms

Performance: 4.406 ns/day, 5.447 hours/ns, 50.995 timesteps/s, 22.030 katom-step/s
95.1% CPU use with 1 MPI tasks x 8 OpenMP threads

MPI task timing breakdown:
Section |  min time  |  avg time  |  max time  |%varavg| %total
---------------------------------------------------------------
Pair    | 909.14     | 909.14     | 909.14     |   0.0 | 92.72
Neigh   | 0.009148   | 0.009148   | 0.009148   |   0.0 |  0.00
Comm    | 0.80718    | 0.80718    | 0.80718    |   0.0 |  0.08
Output  | 0.008393   | 0.008393   | 0.008393   |   0.0 |  0.00
Modify  | 70.383     | 70.383     | 70.383     |   0.0 |  7.18
Other   |            | 0.1354     |            |       |  0.01

Nlocal:            432 ave         432 max         432 min
Histogram: 1 0 0 0 0 0 0 0 0 0
Nghost:           2666 ave        2666 max        2666 min
Histogram: 1 0 0 0 0 0 0 0 0 0
Neighs:          36682 ave       36682 max       36682 min
Histogram: 1 0 0 0 0 0 0 0 0 0
FullNghs:        73364 ave       73364 max       73364 min
Histogram: 1 0 0 0 0 0 0 0 0 0

Total # of neighbors = 73364
Ave neighs/atom = 169.82407
Neighbor list builds = 11
Dangerous builds = 0

=== FINAL RESULTS: DHCP at 650 K ===
Atoms: 432 | PE/atom: -4.99821566231109 eV/atom
WARNING: Detected non-ASCII characters in input. Will try to continue by replacing with ASCII equivalents where known. (src/input.cpp:479)
Volume: 5333.11735566677 …³ | Area: 264.353293402644 ²
==========================================
DHCP 650 432 -4.99821566231109 5333.11735566677 12.354126645101 21.3979750246022 20.1742043271757 264.353293402644
Simulation complete!
Total wall time: 0:22:39
