LAMMPS (10 Sep 2025)
  using 8 OpenMP thread(s) per MPI task
Loaded 1 plugins from C:\Users\harsh\Downloads\LAMMPS 64-bit 10Sep2025\plugins
using multi-threaded neighbor list subroutines
Reading data file ...
  orthogonal box = (0 0 0) to (15.103801 26.16055 24.664403)
  1 by 1 by 1 MPI processor grid
  reading atoms ...
  432 atoms
  read_data CPU = 0.006 seconds
=== STAGE 1: Energy Minimization ===
Switching to 'neigh_modify every 1 delay 0 check yes' setting during minimization
No /omp style for force computation currently active
Neighbor list info ...
  update: every = 1 steps, delay = 0 steps, check = yes
  max neighbors/atom: 4000, page size: 100000
  master list distance cutoff = 8
  ghost atom cutoff = 8
  binsize = 4, bins = 4 7 7
  2 neighbor lists, perpetual/occasional/extra = 2 0 0
  (1) pair meam, perpetual
      attributes: full, newton on, omp
      pair build: full/bin/atomonly/omp
      stencil: full/bin/3d
      bin: standard
  (2) pair meam, perpetual, half/full from (1)
      attributes: half, newton on, omp
      pair build: halffull/newton/omp
      stencil: none
      bin: none
Setting up cg style minimization ...
  Unit style    : metal
  Current step  : 0
Per MPI rank memory allocation (min/avg/max) = 19.46 | 19.46 | 19.46 Mbytes
   Step          Temp          PotEng         KinEng         TotEng         Press          Volume           Lx             Ly             Lz      
         0   0             -1524.8913      0             -1524.8913     -163190.57      9745.4915      15.103801      26.16055       24.664403    
       398   0             -2027.8855      0             -2027.8855     -22953.303      9745.4915      15.103801      26.16055       24.664403    
Loop time of 15.5102 on 8 procs for 398 steps with 432 atoms

90.7% CPU use with 1 MPI tasks x 8 OpenMP threads

Minimization stats:
  Stopping criterion = energy tolerance
  Energy initial, next-to-last, final = 
     -1524.89125208193  -2027.88543616341  -2027.88554228759
  Force two-norm initial, final = 13.43353 0.44778194
  Force max component initial, final = 1.3584747 0.21516292
  Final line search alpha, max atom move = 1 0.21516292
  Iterations, force evaluations = 398 778

MPI task timing breakdown:
Section |  min time  |  avg time  |  max time  |%varavg| %total
---------------------------------------------------------------
Pair    | 15.203     | 15.203     | 15.203     |   0.0 | 98.02
Neigh   | 0.03444    | 0.03444    | 0.03444    |   0.0 |  0.22
Comm    | 0.024707   | 0.024707   | 0.024707   |   0.0 |  0.16
Output  | 0          | 0          | 0          |   0.0 |  0.00
Modify  | 0.21365    | 0.21365    | 0.21365    |   0.0 |  1.38
Other   |            | 0.0341     |            |       |  0.22

Nlocal:            432 ave         432 max         432 min
Histogram: 1 0 0 0 0 0 0 0 0 0
Nghost:           2496 ave        2496 max        2496 min
Histogram: 1 0 0 0 0 0 0 0 0 0
Neighs:          28434 ave       28434 max       28434 min
Histogram: 1 0 0 0 0 0 0 0 0 0
FullNghs:        56868 ave       56868 max       56868 min
Histogram: 1 0 0 0 0 0 0 0 0 0

Total # of neighbors = 56868
Ave neighs/atom = 131.63889
Neighbor list builds = 21
Dangerous builds = 0
Minimized PE/atom: -4.69417949603609 eV/atom
=== STAGE 2: NPT Equilibration at 650 K ===
No /omp style for force computation currently active
Setting up Verlet run ...
  Unit style    : metal
  Current step  : 0
  Time step     : 0.002
Per MPI rank memory allocation (min/avg/max) = 18.49 | 18.49 | 18.49 Mbytes
   Step          Temp          PotEng         KinEng         TotEng         Press          Volume           Lx             Ly             Lz      
         0   650           -2027.8855      36.21223      -1991.6733     -18984.399      9745.4915      15.103801      26.16055       24.664403    
       500   694.76077     -2012.3624      38.705902     -1973.6565     -502.4761       7742.356       13.988658      24.229066      22.843383    
      1000   651.69366     -2031.1207      36.306586     -1994.8141     -1297.4535      7069.2614      13.570932      23.505544      22.16124     
      1500   846.25389     -2073.9147      47.145754     -2026.7689     -8977.0643      5810.6033      12.712337      22.018414      20.75916     
      2000   652.1954      -2131.3507      36.334538     -2095.0162     -1905.4616      5389.2972      12.397355      21.472849      20.244796    
      2500   652.7915      -2143.8251      36.367747     -2107.4573     -3154.6706      5364.3631      12.378207      21.439683      20.213527    
      3000   619.29315     -2149.0371      34.501516     -2114.5356     -1973.001       5342.7367      12.36155       21.410832      20.186326    
      3500   668.4364      -2152.8475      37.239342     -2115.6082     -5481.2131      5364.5282      12.378334      21.439903      20.213734    
      4000   615.89522     -2148.3389      34.312214     -2114.0267     -718.57431      5359.0084      12.374086      21.432546      20.206799    
      4500   603.24943     -2150.0904      33.607703     -2116.4827     -1936.0709      5352.3577      12.368966      21.423677      20.198436    
      5000   600.79801     -2151.5465      33.471132     -2118.0754     -672.52653      5352.4982      12.369074      21.423864      20.198613    
      5500   634.50744     -2154.3567      35.349122     -2119.0076      721.31595      5343.9244      12.362466      21.412419      20.187822    
      6000   652.3548      -2151.6267      36.343418     -2115.2833     -1441.8688      5352.6107      12.36916       21.424014      20.198754    
      6500   666.00243     -2152.7366      37.103743     -2115.6329     -2777.9026      5360.6669      12.375363      21.434757      20.208883    
      7000   640.89116     -2153.3597      35.704766     -2117.655      -8264.3151      5367.1366      12.380339      21.443377      20.21701     
      7500   676.47661     -2156.8299      37.687271     -2119.1426     -9320.452       5369.7816      12.382373      21.446899      20.22033     
      8000   618.27804     -2156.5246      34.444964     -2122.0797     -5502.6876      5358.5912      12.373765      21.43199       20.206274    
      8500   668.95951     -2156.1352      37.268485     -2118.8668     -6681.7642      5360.7657      12.375439      21.434889      20.209007    
      9000   625.35897     -2152.0725      34.83945      -2117.2331     -2635.8888      5363.5337      12.377569      21.438578      20.212485    
      9500   663.64394     -2156.2495      36.972349     -2119.2771     -5458.3228      5350.2099      12.367311      21.420811      20.195734    
     10000   601.88214     -2154.7597      33.53153      -2121.2282     -1127.1595      5341.0652      12.360261      21.408599      20.184221    
     10500   604.01027     -2155.1903      33.65009      -2121.5402      3984.609       5323.8254      12.346948      21.38554       20.162481    
     11000   645.95393     -2154.4318      35.986818     -2118.445      -2887.9905      5343.9262      12.362467      21.412421      20.187824    
     11500   662.91275     -2153.3657      36.931613     -2116.4341      1748.4043      5336.8976      12.357045      21.40303       20.17897     
     12000   642.6811      -2150.486       35.804486     -2114.6815     -508.44417      5362.3336      12.376645      21.436979      20.210977    
     12500   675.82602     -2152.411       37.651026     -2114.7599      195.4076       5350.1071      12.367232      21.420674      20.195605    
     13000   650.01938     -2154.4733      36.213309     -2118.26       -5470.4373      5362.0471      12.376425      21.436597      20.210617    
     13500   643.63125     -2152.4052      35.85742      -2116.5478     -5033.8         5368.7048      12.381545      21.445465      20.218978    
     14000   673.7476      -2151.4864      37.535235     -2113.9512     -6185.7096      5375.2711      12.386591      21.454205      20.227218    
     14500   640.75269     -2155.7919      35.697052     -2120.0949     -3812.2523      5358.5716      12.37375       21.431964      20.20625     
     15000   633.16137     -2156.7064      35.274131     -2121.4322     -189.38529      5340.4509      12.359787      21.407779      20.183447    
     15500   599.53805     -2157.5932      33.400938     -2124.1923     -2387.161       5341.1303      12.360311      21.408686      20.184303    
     16000   657.81856     -2155.6135      36.64781      -2118.9657     -8031.6919      5364.1876      12.378072      21.439449      20.213306    
     16500   637.01586     -2154.8763      35.488869     -2119.3874     -9164.8306      5380.3205      12.390468      21.46092       20.23355     
     17000   603.94283     -2155.2404      33.646333     -2121.5941     -9088.607       5369.8424      12.38242       21.44698       20.220406    
     17500   604.68448     -2153.0006      33.687651     -2119.3129     -3947.1513      5363.5285      12.377565      21.438571      20.212478    
     18000   660.50396     -2155.1718      36.797417     -2118.3743      2871.578       5337.7598      12.35771       21.404182      20.180056    
     18500   642.22301     -2157.6613      35.778965     -2121.8823      579.34758      5328.1229      12.350269      21.391293      20.167905    
     19000   661.00049     -2157.5141      36.825079     -2120.689       1176.9732      5337.1905      12.357271      21.403421      20.179339    
     19500   686.64588     -2156.0725      38.253813     -2117.8187     -1140.4831      5344.5495      12.362948      21.413254      20.188609    
     20000   645.76097     -2155.9133      35.976069     -2119.9373     -627.96445      5351.0308      12.367943      21.421906      20.196767    
Loop time of 585.381 on 8 procs for 20000 steps with 432 atoms

Performance: 5.904 ns/day, 4.065 hours/ns, 34.166 timesteps/s, 14.760 katom-step/s
92.9% CPU use with 1 MPI tasks x 8 OpenMP threads

MPI task timing breakdown:
Section |  min time  |  avg time  |  max time  |%varavg| %total
---------------------------------------------------------------
Pair    | 541.53     | 541.53     | 541.53     |   0.0 | 92.51
Neigh   | 0.049247   | 0.049247   | 0.049247   |   0.0 |  0.01
Comm    | 0.54355    | 0.54355    | 0.54355    |   0.0 |  0.09
Output  | 0.005593   | 0.005593   | 0.005593   |   0.0 |  0.00
Modify  | 43.157     | 43.157     | 43.157     |   0.0 |  7.37
Other   |            | 0.09953    |            |       |  0.02

Nlocal:            432 ave         432 max         432 min
Histogram: 1 0 0 0 0 0 0 0 0 0
Nghost:           2635 ave        2635 max        2635 min
Histogram: 1 0 0 0 0 0 0 0 0 0
Neighs:          36783 ave       36783 max       36783 min
Histogram: 1 0 0 0 0 0 0 0 0 0
FullNghs:        73566 ave       73566 max       73566 min
Histogram: 1 0 0 0 0 0 0 0 0 0

Total # of neighbors = 73566
Ave neighs/atom = 170.29167
Neighbor list builds = 41
Dangerous builds = 0
=== STAGE 3: NPT Production at 650 K ===
No /omp style for force computation currently active
Setting up Verlet run ...
  Unit style    : metal
  Current step  : 0
  Time step     : 0.001
Per MPI rank memory allocation (min/avg/max) = 18.68 | 18.68 | 18.68 Mbytes
   Step          Temp          PotEng         KinEng         TotEng         Press          Volume           Lx             Ly             Lz      
         0   645.76097     -2155.9133      35.976069     -2119.9373     -627.96445      5351.0308      12.367943      21.421906      20.196767    
       500   621.551       -2155.8826      34.627304     -2121.2553     -7121.0824      5367.03        12.380257      21.443235      20.216876    
      1000   627.10428     -2154.3609      34.936683     -2119.4242     -9506.3566      5373.3986      12.385152      21.451713      20.224869    
      1500   624.82462     -2153.4985      34.809681     -2118.6889     -12642.759      5390.5954      12.398351      21.474573      20.246422    
      2000   619.3789      -2155.6846      34.506294     -2121.1783     -4051.5611      5355.118       12.371091      21.427359      20.201908    
      2500   662.88761     -2158.3342      36.930213     -2121.404      -1032.0414      5341.7239      12.360769      21.409479      20.185051    
      3000   667.01324     -2156.6887      37.160056     -2119.5286      1303.4298      5331.7524      12.353073      21.396149      20.172483    
      3500   685.84353     -2155.1936      38.209113     -2116.9845     -942.07605      5353.442       12.369801      21.425123      20.1998      
      4000   666.45017     -2154.884       37.128687     -2117.7553     -2233.4827      5349.1109      12.366464      21.419344      20.194351    
      4500   632.78752     -2156.9279      35.253303     -2121.6746     -2820.2888      5343.8766      12.362429      21.412355      20.187762    
      5000   667.14054     -2156.0479      37.167149     -2118.8807     -9941.6554      5369.7232      12.382328      21.446821      20.220257    
      5500   672.15695     -2157.957       37.446618     -2120.5104     -8131.5542      5361.5912      12.376074      21.435989      20.210044    
      6000   608.7163      -2158.6455      33.912268     -2124.7332     -7030.4733      5352.331       12.368945      21.423641      20.198403    
      6500   642.05331     -2156.709       35.769511     -2120.9394     -10527.9        5364.4952      12.378308      21.439859      20.213693    
      7000   612.06745     -2156.2528      34.098965     -2122.1539     -3514.3406      5352.7332      12.369255      21.424178      20.198908    
      7500   652.5177      -2154.6361      36.352494     -2118.2836     -1706.2744      5349.4145      12.366698      21.419749      20.194733    
      8000   664.51576     -2156.1854      37.020919     -2119.1644      2646.174       5325.3665      12.348139      21.387604      20.164426    
      8500   651.16553     -2157.6888      36.277163     -2121.4116      1220.9421      5326.7809      12.349232      21.389497      20.166211    
      9000   648.87319     -2161.1153      36.149454     -2124.9659     -5986.2382      5346.3879      12.364365      21.415709      20.190924    
      9500   657.46095     -2157.8353      36.627887     -2121.2074     -10404.176      5366.1027      12.379544      21.442         20.215711    
     10000   668.52581     -2157.3714      37.244323     -2120.1271     -5783.2949      5360.7171      12.375402      21.434824      20.208946    
     10500   650.15497     -2155.1881      36.220863     -2118.9672     -8370.997       5375.1518      12.386499      21.454046      20.227069    
     11000   642.10961     -2155.9558      35.772647     -2120.1832     -10323.693      5376.8556      12.387808      21.456313      20.229205    
     11500   594.75352     -2155.2718      33.134386     -2122.1374     -4966.3843      5358.0723      12.373366      21.431298      20.205622    
     12000   610.55936     -2157.0973      34.014947     -2123.0823     -7870.7144      5359.7638      12.374668      21.433554      20.207748    
     12500   639.74813     -2160.9653      35.641086     -2125.3243     -1549.9769      5336.9983      12.357123      21.403164      20.179097    
     13000   626.10508     -2155.8967      34.881017     -2121.0157      3152.4711      5338.0609      12.357943      21.404585      20.180436    
     13500   698.35931     -2158.2831      38.906381     -2119.3767      5040.9344      5323.3921      12.346613      21.38496       20.161934    
     14000   690.66663     -2158.6121      38.477813     -2120.1342      2785.4222      5329.1746      12.351081      21.392701      20.169232    
     14500   618.10742     -2157.182       34.435458     -2122.7465      1356.6989      5340.0982      12.359515      21.407307      20.183003    
     15000   651.73923     -2156.8794      36.309124     -2120.5703      957.96591      5334.566       12.355245      21.399912      20.176031    
     15500   689.83582     -2157.0582      38.431528     -2118.6267     -2795.141       5351.519       12.368319      21.422558      20.197381    
     16000   706.10086     -2159.1837      39.337672     -2119.846      -3039.3123      5341.6388      12.360703      21.409366      20.184944    
     16500   605.96617     -2157.9881      33.759056     -2124.229       1946.2901      5326.8903      12.349316      21.389644      20.166349    
     17000   599.93111     -2158.1679      33.422836     -2124.7451     -2041.289       5336.2706      12.356561      21.402191      20.17818     
     17500   635.47028     -2155.5562      35.402762     -2120.1535     -2204.5059      5356.6805      12.372295      21.429443      20.203872    
     18000   693.62802     -2157.4095      38.642795     -2118.7667     -9548.6324      5367.6527      12.380736      21.444064      20.217658    
     18500   613.53542     -2156.6645      34.180747     -2122.4838     -6301.766       5363.5123      12.377552      21.438549      20.212458    
     19000   680.39088     -2158.8054      37.90534      -2120.9001     -6811.7365      5361.0324      12.375644      21.435244      20.209342    
     19500   656.04751     -2158.291       36.549143     -2121.7419     -10036.108      5364.3335      12.378184      21.439643      20.213489    
     20000   662.56575     -2157.5818      36.912282     -2120.6695     -15926.604      5382.836       12.392399      21.464265      20.236703    
     20500   634.13274     -2155.0369      35.328247     -2119.7086     -11507.239      5383.1159      12.392614      21.464637      20.237053    
     21000   612.73706     -2160.4758      34.136269     -2126.3396     -3159.6216      5344.5387      12.36294       21.413239      20.188596    
     21500   700.3421      -2157.9036      39.016845     -2118.8867     -2657.0704      5346.2477      12.364257      21.415522      20.190747    
     22000   622.17305     -2153.0212      34.661959     -2118.3593     -4845.352       5370.7661      12.383129      21.448209      20.221566    
     22500   666.3059      -2158.4236      37.12065      -2121.3029      1445.9784      5339.0643      12.358717      21.405926      20.1817      
     23000   630.18215     -2158.4246      35.108155     -2123.3164      8904.6155      5306.8936      12.333844      21.362845      20.141083    
     23500   635.20895     -2156.3273      35.388204     -2120.939       3186.4355      5327.4692      12.349764      21.390418      20.16708     
     24000   671.25287     -2156.0222      37.396251     -2118.626      -2572.6781      5356.4811      12.372141      21.429177      20.203622    
     24500   678.70727     -2157.9169      37.811544     -2120.1054      391.3322       5337.9699      12.357873      21.404463      20.180321    
     25000   661.07538     -2157.9469      36.829252     -2121.1177     -205.43298      5341.8731      12.360884      21.409679      20.185239    
     25500   596.7845      -2159.0316      33.247534     -2125.7841      1034.6703      5328.5763      12.350619      21.3919        20.168477    
     26000   644.1099      -2159.6997      35.884086     -2123.8156     -6107.0449      5344.4415      12.362865      21.41311       20.188473    
     26500   640.45008     -2157.1981      35.680193     -2121.5179     -4388.0772      5355.1097      12.371085      21.427348      20.201897    
     27000   658.13022     -2156.6118      36.665173     -2119.9466     -3227.9384      5350.7674      12.36774       21.421555      20.196435    
     27500   665.16853     -2157.1408      37.057285     -2120.0836     -2988.1378      5350.3816      12.367443      21.42104       20.19595     
     28000   670.60493     -2159.3704      37.360153     -2122.0102     -793.7342       5344.7988      12.36314       21.413587      20.188923    
     28500   626.53212     -2156.9619      34.904808     -2122.0571     -508.8221       5353.2045      12.369618      21.424806      20.199501    
     29000   637.97291     -2155.79        35.542187     -2120.2478      2212.3148      5346.6167      12.364542      21.416014      20.191212    
     29500   659.89893     -2155.3163      36.76371      -2118.5526     -656.797        5350.1749      12.367284      21.420764      20.19569     
     30000   673.75084     -2156.8936      37.535416     -2119.3582      6490.1793      5324.5671      12.347521      21.386534      20.163417    
     30500   600.11062     -2160.0371      33.432836     -2126.6042      5051.7314      5313.617       12.339051      21.371863      20.149586    
     31000   647.59108     -2158.0967      36.078026     -2122.0186      823.07269      5337.2947      12.357351      21.40356       20.17947     
     31500   653.28458     -2157.0405      36.395218     -2120.6452      4418.8853      5329.8042      12.351568      21.393543      20.170026    
     32000   640.70091     -2156.3127      35.694167     -2120.6185      4685.3224      5327.772       12.349998      21.390824      20.167462    
     32500   659.5892      -2156.3647      36.746455     -2119.6183      5142.981       5324.0438      12.347116      21.385833      20.162757    
     33000   693.31595     -2155.2         38.62541      -2116.5746      830.9696       5351.3555      12.368193      21.42234       20.197175    
     33500   656.65093     -2155.0034      36.582761     -2118.4207     -665.36645      5351.6265      12.368402      21.422701      20.197516    
     34000   659.81019     -2156.9852      36.758766     -2120.2264      1874.4859      5345.0468      12.363331      21.413918      20.189235    
     34500   643.56932     -2159.3185      35.853969     -2123.4646     -1829.1251      5337.9367      12.357847      21.404419      20.180279    
     35000   653.02868     -2156.5501      36.380961     -2120.1691     -6307.4044      5363.9957      12.377924      21.439193      20.213065    
     35500   670.95344     -2156.5502      37.379569     -2119.1706     -7039.3399      5365.4054      12.379008      21.441071      20.214836    
     36000   658.35424     -2158.021       36.677654     -2121.3433     -12045.838      5372.6323      12.384564      21.450693      20.223908    
     36500   609.10394     -2157.8526      33.933864     -2123.9187     -9187.5615      5371.673       12.383826      21.449417      20.222704    
     37000   696.70523     -2154.4786      38.81423      -2115.6643     -10091.536      5373.898       12.385536      21.452378      20.225496    
     37500   608.50386     -2155.0205      33.900433     -2121.1201     -10648.414      5369.4244      12.382098      21.446423      20.219882    
     38000   626.72438     -2158.3837      34.915519     -2123.4681     -4269.7516      5349.4066      12.366692      21.419739      20.194723    
     38500   684.95855     -2158.155       38.15981      -2119.9952     -1003.5888      5332.1886      12.353409      21.396733      20.173033    
     39000   644.15173     -2159.6553      35.886416     -2123.7689     -1449.1351      5333.8275      12.354675      21.398925      20.1751      
     39500   640.3628      -2155.8626      35.67533      -2120.1873      6161.4336      5319.8002      12.343835      21.380149      20.157398    
     40000   682.36193     -2156.9018      38.015149     -2118.8866      4366.0579      5325.1527      12.347974      21.387318      20.164156    
     40500   640.18182     -2157.9087      35.665248     -2122.2435      7375.0976      5307.415       12.334248      21.363545      20.141743    
     41000   654.04746     -2159.6798      36.437718     -2123.2421      2840.465       5323.24        12.346495      21.384757      20.161742    
     41500   712.06824     -2157.1287      39.670121     -2117.4586     -5520.0833      5360.2136      12.375014      21.434153      20.208313    
     42000   670.84366     -2157.8876      37.373453     -2120.5142     -722.67907      5334.889       12.355494      21.400344      20.176438    
     42500   651.78101     -2158.7475      36.311452     -2122.436      -356.59787      5325.7756      12.348455      21.388151      20.164943    
     43000   653.43724     -2157.1396      36.403722     -2120.7359      3756.0409      5331.0895      12.352561      21.395263      20.171647    
     43500   674.33706     -2156.6103      37.568075     -2119.0422     -1227.9131      5342.645       12.361479      21.41071       20.186211    
     44000   647.70153     -2160.5057      36.084179     -2124.4215      4722.929       5314.8593      12.340012      21.373528      20.151156    
     44500   648.69065     -2158.7837      36.139284     -2122.6444     -30.27119       5333.5317      12.354447      21.398529      20.174727    
     45000   664.83997     -2157.2806      37.038981     -2120.2416      3418.2365      5329.2653      12.351151      21.392822      20.169346    
     45500   671.19321     -2155.474       37.392927     -2118.0811     -4156.1109      5359.4688      12.374441      21.43316       20.207377    
     46000   645.89815     -2155.4307      35.983711     -2119.447      -492.83065      5346.4262      12.364395      21.41576       20.190972    
     46500   645.27523     -2157.1312      35.949008     -2121.1822      2844.8033      5329.516       12.351345      21.393157      20.169662    
     47000   616.15827     -2157.9645      34.326869     -2123.6376      3753.4579      5316.1901      12.341042      21.375312      20.152837    
     47500   648.62621     -2157.7202      36.135694     -2121.5845     -492.60222      5334.5389      12.355224      21.399876      20.175997    
     48000   639.74145     -2157.2052      35.640714     -2121.5645      778.29234      5331.3198      12.352738      21.395571      20.171937    
     48500   702.93751     -2156.7047      39.161438     -2117.5432     -6285.2491      5359.7034      12.374621      21.433473      20.207672    
     49000   602.46893     -2156.2802      33.564221     -2122.7159     -5517.315       5357.0665      12.372592      21.429957      20.204358    
     49500   635.93616     -2155.5622      35.428717     -2120.1334     -5139.9901      5358.6097      12.37378       21.432015      20.206298    
     50000   645.89296     -2156.2677      35.983422     -2120.2842      1564.8781      5329.0789      12.351008      21.392573      20.169111    
Loop time of 1455.54 on 8 procs for 50000 steps with 432 atoms

Performance: 2.968 ns/day, 8.086 hours/ns, 34.352 timesteps/s, 14.840 katom-step/s
93.3% CPU use with 1 MPI tasks x 8 OpenMP threads

MPI task timing breakdown:
Section |  min time  |  avg time  |  max time  |%varavg| %total
---------------------------------------------------------------
Pair    | 1351.2     | 1351.2     | 1351.2     |   0.0 | 92.83
Neigh   | 0.011089   | 0.011089   | 0.011089   |   0.0 |  0.00
Comm    | 1.343      | 1.343      | 1.343      |   0.0 |  0.09
Output  | 0.010961   | 0.010961   | 0.010961   |   0.0 |  0.00
Modify  | 102.73     | 102.73     | 102.73     |   0.0 |  7.06
Other   |            | 0.2359     |            |       |  0.02

Nlocal:            432 ave         432 max         432 min
Histogram: 1 0 0 0 0 0 0 0 0 0
Nghost:           2636 ave        2636 max        2636 min
Histogram: 1 0 0 0 0 0 0 0 0 0
Neighs:          36826 ave       36826 max       36826 min
Histogram: 1 0 0 0 0 0 0 0 0 0
FullNghs:        73652 ave       73652 max       73652 min
Histogram: 1 0 0 0 0 0 0 0 0 0

Total # of neighbors = 73652
Ave neighs/atom = 170.49074
Neighbor list builds = 9
Dangerous builds = 0

=== FINAL RESULTS: HCP at 650 K ===
Atoms: 432 | PE/atom: -4.99444663185025 eV/atom
WARNING: Detected non-ASCII characters in input. Will try to continue by replacing with ASCII equivalents where known. (src/input.cpp:479)
Volume: 5329.07892620254 …³ | Area: 264.219824634159 ²
==========================================
HCP 650 432 -4.99444663185025 5329.07892620254 12.3510075270709 21.3925725537 20.1691108287625 264.219824634159
Simulation complete!
Total wall time: 0:34:16
