LAMMPS (10 Sep 2025)
  using 8 OpenMP thread(s) per MPI task
Loaded 1 plugins from C:\Users\harsh\Downloads\LAMMPS 64-bit 10Sep2025\plugins
using multi-threaded neighbor list subroutines
Reading data file ...
  orthogonal box = (0 0 0) to (21.6 21.6 21.6)
  1 by 1 by 1 MPI processor grid
  reading atoms ...
  864 atoms
  read_data CPU = 0.028 seconds
=== STAGE 1: Energy Minimization ===
Switching to 'neigh_modify every 1 delay 0 check yes' setting during minimization
No /omp style for force computation currently active
Neighbor list info ...
  update: every = 1 steps, delay = 0 steps, check = yes
  max neighbors/atom: 4000, page size: 100000
  master list distance cutoff = 8
  ghost atom cutoff = 8
  binsize = 4, bins = 6 6 6
  2 neighbor lists, perpetual/occasional/extra = 2 0 0
  (1) pair meam, perpetual
      attributes: full, newton on, omp
      pair build: full/bin/atomonly/omp
      stencil: full/bin/3d
      bin: standard
  (2) pair meam, perpetual, half/full from (1)
      attributes: half, newton on, omp
      pair build: halffull/newton/omp
      stencil: none
      bin: none
Setting up cg style minimization ...
  Unit style    : metal
  Current step  : 0
Per MPI rank memory allocation (min/avg/max) = 21.26 | 21.26 | 21.26 Mbytes
   Step          Temp          PotEng         KinEng         TotEng         Press          Volume           Lx             Ly             Lz      
         0   0             -3749.0146      0             -3749.0146     -30424.241      10077.696      21.6           21.6           21.6         
         1   0             -3749.0146      0             -3749.0146     -30424.241      10077.696      21.6           21.6           21.6         
Loop time of 0.091756 on 8 procs for 1 steps with 864 atoms

102.2% CPU use with 1 MPI tasks x 8 OpenMP threads

Minimization stats:
  Stopping criterion = energy tolerance
  Energy initial, next-to-last, final = 
     -3749.01464010513  -3749.01464010513  -3749.01464010513
  Force two-norm initial, final = 2.3494804e-13 2.374361e-13
  Force max component initial, final = 8.4752694e-15 8.4591842e-15
  Final line search alpha, max atom move = 1 8.4591842e-15
  Iterations, force evaluations = 1 2

MPI task timing breakdown:
Section |  min time  |  avg time  |  max time  |%varavg| %total
---------------------------------------------------------------
Pair    | 0.090786   | 0.090786   | 0.090786   |   0.0 | 98.94
Neigh   | 0          | 0          | 0          |   0.0 |  0.00
Comm    | 8.3e-05    | 8.3e-05    | 8.3e-05    |   0.0 |  0.09
Output  | 0          | 0          | 0          |   0.0 |  0.00
Modify  | 0.000693   | 0.000693   | 0.000693   |   0.0 |  0.76
Other   |            | 0.000194   |            |       |  0.21

Nlocal:            864 ave         864 max         864 min
Histogram: 1 0 0 0 0 0 0 0 0 0
Nghost:           3767 ave        3767 max        3767 min
Histogram: 1 0 0 0 0 0 0 0 0 0
Neighs:          76032 ave       76032 max       76032 min
Histogram: 1 0 0 0 0 0 0 0 0 0
FullNghs:       152064 ave      152064 max      152064 min
Histogram: 1 0 0 0 0 0 0 0 0 0

Total # of neighbors = 152064
Ave neighs/atom = 176
Neighbor list builds = 0
Dangerous builds = 0
Minimized PE/atom: -4.33913731493649 eV/atom
=== STAGE 2: NPT Equilibration at 400 K ===
No /omp style for force computation currently active
Setting up Verlet run ...
  Unit style    : metal
  Current step  : 0
  Time step     : 0.002
Per MPI rank memory allocation (min/avg/max) = 20.14 | 20.14 | 20.14 Mbytes
   Step          Temp          PotEng         KinEng         TotEng         Press          Volume           Lx             Ly             Lz      
         0   400           -3749.0146      44.620602     -3704.394      -25694.98       10077.696      21.6           21.6           21.6         
       500   388.78279     -3710.2988      43.369305     -3666.9295      8356.223       9951.2568      21.509285      21.509285      21.509285    
      1000   367.91411     -3707.074       41.041372     -3666.0327     -4253.007       10034.167      21.568856      21.568856      21.568856    
      1500   387.92297     -3705.4495      43.273391     -3662.1761      2971.9093      9996.1847      21.541607      21.541607      21.541607    
      2000   413.22152     -3705.7389      46.095483     -3659.6434     -1089.4585      10021.693      21.559914      21.559914      21.559914    
      2500   406.57527     -3706.2108      45.354083     -3660.8567     -27.077052      10014.297      21.554609      21.554609      21.554609    
      3000   359.34616     -3703.5188      40.085605     -3663.4332      1574.6375      10005.2        21.548081      21.548081      21.548081    
      3500   396.77956     -3708.7111      44.261357     -3664.4497     -1501.9702      10015.84       21.555716      21.555716      21.555716    
      4000   408.3679      -3707.7558      45.554054     -3662.2017      1706.4738      9999.16        21.543744      21.543744      21.543744    
      4500   419.63392     -3708.0103      46.810796     -3661.1995     -3157.5006      10030.549      21.566264      21.566264      21.566264    
      5000   407.57341     -3706.8851      45.465427     -3661.4196      3381.2687      9990.8792      21.537795      21.537795      21.537795    
      5500   395.69829     -3708.038       44.14074      -3663.8972     -4317.5234      10034.995      21.569449      21.569449      21.569449    
      6000   389.99731     -3707.6162      43.504787     -3664.1114      4962.3011      9979.789       21.529823      21.529823      21.529823    
      6500   391.96324     -3704.5051      43.724089     -3660.7811     -3524.3392      10037.351      21.571137      21.571137      21.571137    
      7000   403.24617     -3704.6654      44.982717     -3659.6827      2058.4         10003.344      21.546748      21.546748      21.546748    
      7500   409.0699      -3707.8418      45.632364     -3662.2094     -307.51463      10009.705      21.551315      21.551315      21.551315    
      8000   417.75019     -3709.0771      46.600662     -3662.4764     -1179.2202      10014.383      21.554671      21.554671      21.554671    
      8500   399.70374     -3705.744       44.587554     -3661.1564      1259.4475      10003.975      21.547201      21.547201      21.547201    
      9000   405.97571     -3707.3059      45.287201     -3662.0187     -1560.1586      10019.165      21.558101      21.558101      21.558101    
      9500   396.61        -3706.8525      44.242443     -3662.6101      1925.3443      10000.945      21.545026      21.545026      21.545026    
     10000   393.15869     -3708.2298      43.857444     -3664.3723     -2325.1676      10021.659      21.55989       21.55989       21.55989     
     10500   377.98248     -3707.5366      42.164514     -3665.3721      3444.4732      9987.8206      21.535597      21.535597      21.535597    
     11000   386.57812     -3705.8468      43.123371     -3662.7235     -2629.6397      10026.881      21.563634      21.563634      21.563634    
     11500   393.96192     -3705.5117      43.947045     -3661.5646      2734.5898      9996.5171      21.541845      21.541845      21.541845    
     12000   394.60808     -3705.2049      44.019125     -3661.1858     -1361.8043      10022.209      21.560284      21.560284      21.560284    
     12500   387.28741     -3707.8252      43.202494     -3664.6227      390.39665      10005.26       21.548124      21.548124      21.548124    
     13000   397.1899      -3708.6492      44.307131     -3664.3421      1048.4836      9999.8512      21.54424       21.54424       21.54424     
     13500   411.89874     -3707.9233      45.947924     -3661.9754     -2937.4996      10026.432      21.563312      21.563312      21.563312    
     14000   423.24232     -3707.1475      47.213318     -3659.9342      2898.0674      9993.697       21.539819      21.539819      21.539819    
     14500   396.84672     -3706.1759      44.268849     -3661.9071     -3994.1343      10036.502      21.570529      21.570529      21.570529    
     15000   384.34017     -3706.6777      42.873724     -3663.804       4623.3228      9981.2866      21.5309        21.5309        21.5309      
     15500   391.05736     -3707.4327      43.623037     -3663.8097     -3679.5192      10031.114      21.566668      21.566668      21.566668    
     16000   393.41819     -3706.567       43.886391     -3662.6806      3062.3337      9991.1711      21.538005      21.538005      21.538005    
     16500   412.89246     -3707.2628      46.058775     -3661.2041     -1882.8634      10022.162      21.560251      21.560251      21.560251    
     17000   406.08374     -3706.8426      45.299252     -3661.5433      507.38717      10007.014      21.549383      21.549383      21.549383    
     17500   392.85122     -3706.4164      43.823145     -3662.5933      68.637595      10009.544      21.551199      21.551199      21.551199    
     18000   377.50328     -3707.777       42.11106      -3665.666      -148.9305       10007.308      21.549594      21.549594      21.549594    
     18500   399.19991     -3708.7333      44.531351     -3664.202       733.61861      10002.705      21.546289      21.546289      21.546289    
     19000   411.46349     -3708.2458      45.899372     -3662.3464     -1804.1189      10018.774      21.557821      21.557821      21.557821    
     19500   386.40966     -3704.1111      43.104579     -3661.0066      1884.3517      10001.72       21.545582      21.545582      21.545582    
     20000   420.7803      -3706.27        46.938676     -3659.3313     -1778.3581      10023.527      21.561229      21.561229      21.561229    
Loop time of 693.076 on 8 procs for 20000 steps with 864 atoms

Performance: 4.986 ns/day, 4.813 hours/ns, 28.857 timesteps/s, 24.932 katom-step/s
96.1% CPU use with 1 MPI tasks x 8 OpenMP threads

MPI task timing breakdown:
Section |  min time  |  avg time  |  max time  |%varavg| %total
---------------------------------------------------------------
Pair    | 661.55     | 661.55     | 661.55     |   0.0 | 95.45
Neigh   | 0          | 0          | 0          |   0.0 |  0.00
Comm    | 0.51414    | 0.51414    | 0.51414    |   0.0 |  0.07
Output  | 0.004054   | 0.004054   | 0.004054   |   0.0 |  0.00
Modify  | 30.935     | 30.935     | 30.935     |   0.0 |  4.46
Other   |            | 0.06851    |            |       |  0.01

Nlocal:            864 ave         864 max         864 min
Histogram: 1 0 0 0 0 0 0 0 0 0
Nghost:           3767 ave        3767 max        3767 min
Histogram: 1 0 0 0 0 0 0 0 0 0
Neighs:          76032 ave       76032 max       76032 min
Histogram: 1 0 0 0 0 0 0 0 0 0
FullNghs:       152064 ave      152064 max      152064 min
Histogram: 1 0 0 0 0 0 0 0 0 0

Total # of neighbors = 152064
Ave neighs/atom = 176
Neighbor list builds = 0
Dangerous builds = 0
=== STAGE 3: NPT Production at 400 K ===
No /omp style for force computation currently active
Setting up Verlet run ...
  Unit style    : metal
  Current step  : 0
  Time step     : 0.001
Per MPI rank memory allocation (min/avg/max) = 20.22 | 20.22 | 20.22 Mbytes
   Step          Temp          PotEng         KinEng         TotEng         Press          Volume           Lx             Ly             Lz      
         0   420.7803      -3706.27        46.938676     -3659.3313     -1778.3581      10023.527      21.561229      21.561229      21.561229    
       500   405.46043     -3706.5828      45.229722     -3661.3531      1476.4068      10001.77       21.545618      21.545618      21.545618    
      1000   393.94815     -3706.8316      43.945509     -3662.8861     -1156.7608      10016.965      21.556523      21.556523      21.556523    
      1500   390.1987      -3706.1377      43.527252     -3662.6105      619.16027      10006.538      21.549041      21.549041      21.549041    
      2000   406.99376     -3706.7035      45.400766     -3661.3027      1716.2717      9999.6683      21.544109      21.544109      21.544109    
      2500   421.61249     -3707.9849      47.031508     -3660.9534     -4636.6577      10037.716      21.571398      21.571398      21.571398    
      3000   397.31018     -3705.5918      44.320548     -3661.2712      5515.8742      9978.3692      21.528802      21.528802      21.528802    
      3500   410.43721     -3708.0959      45.784888     -3662.311      -5391.1436      10041.529      21.574129      21.574129      21.574129    
      4000   375.12574     -3708.1043      41.845841     -3666.2584      4591.4848      9977.9313      21.528487      21.528487      21.528487    
      4500   392.96696     -3706.0233      43.836056     -3662.1872     -3261.6581      10031.192      21.566724      21.566724      21.566724    
      5000   398.06435     -3705.476       44.404677     -3661.0713      2978.3132      9995.6765      21.541242      21.541242      21.541242    
      5500   393.95515     -3707.8339      43.94629      -3663.8877     -2117.7363      10021.684      21.559908      21.559908      21.559908    
      6000   397.70174     -3709.5533      44.364228     -3665.189       1409.7794      9996.4761      21.541816      21.541816      21.541816    
      6500   397.7299      -3708.0272      44.367369     -3663.6599     -1025.5648      10013.683      21.554169      21.554169      21.554169    
      7000   394.37679     -3704.8011      43.993324     -3660.8077     -149.85891      10014.442      21.554713      21.554713      21.554713    
      7500   404.08729     -3707.2302      45.076545     -3662.1537      2711.2714      9993.6945      21.539818      21.539818      21.539818    
      8000   394.47668     -3707.9414      44.004468     -3663.9369     -4888.8203      10038.254      21.571784      21.571784      21.571784    
      8500   390.26692     -3706.5916      43.534862     -3663.0567      4558.2341      9982.3671      21.531676      21.531676      21.531676    
      9000   406.59216     -3706.7689      45.355967     -3661.4129     -3875.2441      10034.199      21.568879      21.568879      21.568879    
      9500   412.10685     -3707.0686      45.97114      -3661.0974      3138.8134      9992.0224      21.538616      21.538616      21.538616    
     10000   402.01046     -3708.2381      44.844872     -3663.3932     -2856.9845      10024.653      21.562037      21.562037      21.562037    
     10500   371.19148     -3706.5434      41.406968     -3665.1364      2168.9849      9996.0547      21.541513      21.541513      21.541513    
     11000   411.47398     -3706.5391      45.900542     -3660.6386     -883.45175      10016.42       21.556132      21.556132      21.556132    
     11500   423.78935     -3707.2906      47.274339     -3660.0163     -992.15899      10015.999      21.55583       21.55583       21.55583     
     12000   382.37802     -3705.4486      42.654843     -3662.7937      2179.1401      9998.5388      21.543297      21.543297      21.543297    
     12500   401.32334     -3707.0737      44.768223     -3662.3054     -4495.1245      10037.908      21.571536      21.571536      21.571536    
     13000   409.86741     -3706.0176      45.721326     -3660.2963      6390.0592      9972.8218      21.524811      21.524811      21.524811    
     13500   402.17924     -3706.2968      44.863699     -3661.4331     -6748.5707      10053.625      21.582789      21.582789      21.582789    
     14000   401.1042      -3708.5121      44.743777     -3663.7683      5417.2946      9974.4582      21.525989      21.525989      21.525989    
     14500   394.46546     -3707.1705      44.003216     -3663.1673     -3809.0775      10032.925      21.567966      21.567966      21.567966    
     15000   406.62017     -3707.9696      45.359091     -3662.6105      2607.9282      9992.5836      21.53902       21.53902       21.53902     
     15500   408.22381     -3707.0989      45.537981     -3661.5609     -1843.1672      10022.664      21.560611      21.560611      21.560611    
     16000   410.40434     -3706.0435      45.781222     -3660.2623      559.53242      10009.913      21.551464      21.551464      21.551464    
     16500   409.41457     -3707.0712      45.670811     -3661.4004     -263.01309      10012.612      21.5534        21.5534        21.5534      
     17000   375.45646     -3708.2671      41.882733     -3666.3843     -915.83681      10012.503      21.553322      21.553322      21.553322    
     17500   395.28797     -3707.9104      44.094968     -3663.8154      2701.0538      9992.1205      21.538687      21.538687      21.538687    
     18000   394.61495     -3705.864       44.019892     -3661.8441     -5763.7416      10049.663      21.579953      21.579953      21.579953    
     18500   416.7205      -3706.6872      46.485799     -3660.2014      7178.1709      9969.0007      21.522062      21.522062      21.522062    
     19000   396.08401     -3707.117       44.183768     -3662.9333     -6017.7741      10046.833      21.577927      21.577927      21.577927    
     19500   404.6017      -3708.4077      45.133929     -3663.2737      3813.3916      9985.1016      21.533642      21.533642      21.533642    
     20000   393.13698     -3705.8044      43.855022     -3661.9494     -2584.5525      10029.012      21.565161      21.565161      21.565161    
     20500   411.20897     -3706.046       45.87098      -3660.1751      2336.1045      9998.8369      21.543512      21.543512      21.543512    
     21000   408.65538     -3704.1126      45.586123     -3658.5265     -1791.7236      10029.273      21.565349      21.565349      21.565349    
     21500   421.05103     -3708.3314      46.968876     -3661.3625      536.91923      10006.368      21.548919      21.548919      21.548919    
     22000   390.19951     -3707.1075      43.527343     -3663.5802     -496.28695      10013.81       21.55426       21.55426       21.55426     
     22500   400.1615      -3709.4021      44.638618     -3664.7635     -1045.1585      10011.67       21.552724      21.552724      21.552724    
     23000   394.02509     -3709.4593      43.954092     -3665.5052      3191.4875      9986.0338      21.534313      21.534313      21.534313    
     23500   409.03438     -3708.866       45.6284       -3663.2376     -7683.0874      10053.851      21.58295       21.58295       21.58295     
     24000   395.36719     -3705.4709      44.103805     -3661.3671      8374.3065      9963.8054      21.518322      21.518322      21.518322    
     24500   402.87579     -3707.1668      44.941401     -3662.2254     -6123.8064      10048.622      21.579208      21.579208      21.579208    
     25000   403.50934     -3708.5492      45.012074     -3663.5371      4647.9397      9979.7483      21.529793      21.529793      21.529793    
     25500   393.18396     -3705.8399      43.860263     -3661.9796     -3887.1238      10037.779      21.571443      21.571443      21.571443    
     26000   406.2094      -3705.7932      45.313271     -3660.4799      3840.7411      9990.1531      21.537273      21.537273      21.537273    
     26500   426.3567      -3705.9921      47.560732     -3658.4314     -3331.5183      10035.518      21.569824      21.569824      21.569824    
     27000   394.42169     -3707.2959      43.998333     -3663.2976      1718.9228      10000.049      21.544382      21.544382      21.544382    
     27500   396.78933     -3708.5533      44.262447     -3664.2908     -335.44938      10008.152      21.5502        21.5502        21.5502      
     28000   404.62365     -3706.814       45.136377     -3661.6776     -1051.6424      10018.556      21.557664      21.557664      21.557664    
     28500   403.27879     -3706.7038      44.986356     -3661.7175      1636.4604      10000.764      21.544895      21.544895      21.544895    
     29000   392.98771     -3707.1351      43.838371     -3663.2967     -2116.3879      10022.441      21.560451      21.560451      21.560451    
     29500   396.55941     -3708.4668      44.2368       -3664.23        1635.7557      9997.4633      21.542525      21.542525      21.542525    
     30000   380.42523     -3707.569       42.437007     -3665.132      -965.5848       10013.815      21.554264      21.554264      21.554264    
     30500   400.39742     -3708.0177      44.664935     -3663.3528      840.10768      10002.181      21.545913      21.545913      21.545913    
     31000   392.54735     -3705.4418      43.789248     -3661.6525     -1418.7316      10021.153      21.559527      21.559527      21.559527    
     31500   403.18225     -3706.6954      44.975587     -3661.7199      1974.4278      9999.1095      21.543707      21.543707      21.543707    
     32000   411.00509     -3710.135       45.848237     -3664.2867     -3371.3025      10023.54       21.561239      21.561239      21.561239    
     32500   380.18518     -3707.2269      42.410229     -3664.8167      2744.4652      9990.8931      21.537805      21.537805      21.537805    
     33000   408.05356     -3707.3666      45.518989     -3661.8476     -1592.8986      10018.469      21.557602      21.557602      21.557602    
     33500   400.6692      -3705.8235      44.695252     -3661.1283      85.893379      10011.433      21.552554      21.552554      21.552554    
     34000   396.07108     -3704.0876      44.182325     -3659.9053      1538.7562      10005.827      21.548531      21.548531      21.548531    
     34500   407.25774     -3707.7339      45.430214     -3662.3037     -2151.1869      10021.1        21.559489      21.559489      21.559489    
     35000   414.19951     -3707.2449      46.204579     -3661.0403      1767.2633      9999.682       21.544119      21.544119      21.544119    
     35500   409.21659     -3705.5311      45.648727     -3659.8824     -1925.2719      10023.05       21.560888      21.560888      21.560888    
     36000   414.42626     -3704.5977      46.229873     -3658.3678      946.34661      10010.713      21.552038      21.552038      21.552038    
     36500   413.29082     -3708.7414      46.103213     -3662.6382     -1143.8449      10013.77       21.554231      21.554231      21.554231    
     37000   380.2032      -3706.2598      42.41224      -3663.8476      883.86001      10003.961      21.547191      21.547191      21.547191    
     37500   426.63338     -3705.4165      47.591596     -3657.825      -850.50314      10020.963      21.559391      21.559391      21.559391    
     38000   407.57228     -3705.8164      45.465301     -3660.3511      475.8067       10010.202      21.551671      21.551671      21.551671    
     38500   411.07377     -3708.0219      45.855897     -3662.1661     -176.08213      10010.754      21.552067      21.552067      21.552067    
     39000   390.44217     -3707.3916      43.554412     -3663.8372     -606.86179      10012.365      21.553223      21.553223      21.553223    
     39500   382.75897     -3708.3858      42.69734      -3665.6885      1251.2038      9998.7424      21.543444      21.543444      21.543444    
     40000   412.89493     -3707.4553      46.059051     -3661.3962     -1937.8632      10021.586      21.559838      21.559838      21.559838    
     40500   394.75704     -3704.9769      44.035742     -3660.9412      2462.3493      9999.6956      21.544128      21.544128      21.544128    
     41000   390.53455     -3708.1519      43.564716     -3664.5871     -2342.3652      10020.792      21.559269      21.559269      21.559269    
     41500   386.65227     -3708.384       43.131642     -3665.2524      2386.6125      9991.2515      21.538062      21.538062      21.538062    
     42000   397.55766     -3708.2346      44.348156     -3663.8865     -1584.2104      10016.621      21.556276      21.556276      21.556276    
     42500   397.63466     -3707.5863      44.356745     -3663.2295      497.52176      10005.189      21.548072      21.548072      21.548072    
     43000   420.47401     -3704.3753      46.904508     -3657.4708      467.23693      10013.982      21.554383      21.554383      21.554383    
     43500   405.52761     -3707.4793      45.237215     -3662.2421     -2348.0969      10024.192      21.561706      21.561706      21.561706    
     44000   398.9632      -3707.2579      44.504945     -3662.7529      3561.9937      9986.6504      21.534756      21.534756      21.534756    
     44500   400.89488     -3708.1318      44.720428     -3663.4113     -4902.3424      10036.188      21.570304      21.570304      21.570304    
     45000   404.81462     -3706.1212      45.15768      -3660.9635      4344.7222      9984.3055      21.53307       21.53307       21.53307     
     45500   407.67386     -3710.4097      45.476633     -3664.933      -4246.0513      10028.759      21.564981      21.564981      21.564981    
     46000   393.13905     -3708.5916      43.855253     -3664.7364      2520.4851      9990.1828      21.537294      21.537294      21.537294    
     46500   391.28987     -3707.4163      43.648973     -3663.7674     -989.21762      10014.257      21.554581      21.554581      21.554581    
     47000   440.21586     -3704.6526      49.106742     -3655.5459     -190.86376      10018.002      21.557267      21.557267      21.557267    
     47500   393.14123     -3707.3984      43.855496     -3663.5429      383.29494      10005.872      21.548563      21.548563      21.548563    
     48000   400.36008     -3707.7711      44.66077      -3663.1103     -692.86415      10011.534      21.552627      21.552627      21.552627    
     48500   400.69981     -3705.4026      44.698667     -3660.7039      742.20513      10008.517      21.550462      21.550462      21.550462    
     49000   398.12662     -3704.2836      44.411623     -3659.872      -604.43963      10018.11       21.557345      21.557345      21.557345    
     49500   391.79955     -3706.2695      43.70583      -3662.5637      1658.2891      10000.632      21.544801      21.544801      21.544801    
     50000   403.4499      -3706.0323      45.005443     -3661.0269     -2028.8183      10023.905      21.561501      21.561501      21.561501    
Loop time of 1787.75 on 8 procs for 50000 steps with 864 atoms

Performance: 2.416 ns/day, 9.932 hours/ns, 27.968 timesteps/s, 24.165 katom-step/s
95.8% CPU use with 1 MPI tasks x 8 OpenMP threads

MPI task timing breakdown:
Section |  min time  |  avg time  |  max time  |%varavg| %total
---------------------------------------------------------------
Pair    | 1714.1     | 1714.1     | 1714.1     |   0.0 | 95.88
Neigh   | 0          | 0          | 0          |   0.0 |  0.00
Comm    | 1.2608     | 1.2608     | 1.2608     |   0.0 |  0.07
Output  | 0.008973   | 0.008973   | 0.008973   |   0.0 |  0.00
Modify  | 72.245     | 72.245     | 72.245     |   0.0 |  4.04
Other   |            | 0.1765     |            |       |  0.01

Nlocal:            864 ave         864 max         864 min
Histogram: 1 0 0 0 0 0 0 0 0 0
Nghost:           3767 ave        3767 max        3767 min
Histogram: 1 0 0 0 0 0 0 0 0 0
Neighs:          79638 ave       79638 max       79638 min
Histogram: 1 0 0 0 0 0 0 0 0 0
FullNghs:       159276 ave      159276 max      159276 min
Histogram: 1 0 0 0 0 0 0 0 0 0

Total # of neighbors = 159276
Ave neighs/atom = 184.34722
Neighbor list builds = 0
Dangerous builds = 0

=== FINAL RESULTS: FCC at 400 K ===
Atoms: 864 | PE/atom: -4.29010060923825 eV/atom
WARNING: Detected non-ASCII characters in input. Will try to continue by replacing with ASCII equivalents where known. (src/input.cpp:479)
Volume: 10023.9054614629 …³ | Area: 464.898317767923 ²
==========================================
FCC 400 864 -4.29010060923825 10023.9054614629 21.5615008236422 21.5615008236422 21.5615008236422 464.898317767923
Simulation complete!
Total wall time: 0:41:21
