LAMMPS (10 Sep 2025)
  using 8 OpenMP thread(s) per MPI task
Loaded 1 plugins from C:\Users\harsh\Downloads\LAMMPS 64-bit 10Sep2025\plugins
using multi-threaded neighbor list subroutines
Reading data file ...
  orthogonal box = (0 0 0) to (15.273506 26.454489 24.941532)
  1 by 1 by 1 MPI processor grid
  reading atoms ...
  432 atoms
  read_data CPU = 0.007 seconds
=== STAGE 1: Energy Minimization ===
Switching to 'neigh_modify every 1 delay 0 check yes' setting during minimization
No /omp style for force computation currently active
Neighbor list info ...
  update: every = 1 steps, delay = 0 steps, check = yes
  max neighbors/atom: 4000, page size: 100000
  master list distance cutoff = 8
  ghost atom cutoff = 8
  binsize = 4, bins = 4 7 7
  2 neighbor lists, perpetual/occasional/extra = 2 0 0
  (1) pair meam, perpetual
      attributes: full, newton on, omp
      pair build: full/bin/atomonly/omp
      stencil: full/bin/3d
      bin: standard
  (2) pair meam, perpetual, half/full from (1)
      attributes: half, newton on, omp
      pair build: halffull/newton/omp
      stencil: none
      bin: none
Setting up cg style minimization ...
  Unit style    : metal
  Current step  : 0
Per MPI rank memory allocation (min/avg/max) = 19.46 | 19.46 | 19.46 Mbytes
   Step          Temp          PotEng         KinEng         TotEng         Press          Volume           Lx             Ly             Lz      
         0   0             -1141.6082      0             -1141.6082     -146534.51      10077.696      15.273506      26.454489      24.941532    
         1   0             -1141.6082      0             -1141.6082     -146534.51      10077.696      15.273506      26.454489      24.941532    
Loop time of 0.061043 on 8 procs for 1 steps with 432 atoms

102.4% CPU use with 1 MPI tasks x 8 OpenMP threads

Minimization stats:
  Stopping criterion = energy tolerance
  Energy initial, next-to-last, final = 
     -1141.60822161205  -1141.60822161205  -1141.60822161204
  Force two-norm initial, final = 5.1728099e-07 1.447416e-07
  Force max component initial, final = 3.7463984e-08 9.3849878e-09
  Final line search alpha, max atom move = 1 9.3849878e-09
  Iterations, force evaluations = 1 2

MPI task timing breakdown:
Section |  min time  |  avg time  |  max time  |%varavg| %total
---------------------------------------------------------------
Pair    | 0.059674   | 0.059674   | 0.059674   |   0.0 | 97.76
Neigh   | 0          | 0          | 0          |   0.0 |  0.00
Comm    | 9.1e-05    | 9.1e-05    | 9.1e-05    |   0.0 |  0.15
Output  | 0          | 0          | 0          |   0.0 |  0.00
Modify  | 0.001043   | 0.001043   | 0.001043   |   0.0 |  1.71
Other   |            | 0.000235   |            |       |  0.38

Nlocal:            432 ave         432 max         432 min
Histogram: 1 0 0 0 0 0 0 0 0 0
Nghost:           1821 ave        1821 max        1821 min
Histogram: 1 0 0 0 0 0 0 0 0 0
Neighs:          22032 ave       22032 max       22032 min
Histogram: 1 0 0 0 0 0 0 0 0 0
FullNghs:        44064 ave       44064 max       44064 min
Histogram: 1 0 0 0 0 0 0 0 0 0

Total # of neighbors = 44064
Ave neighs/atom = 102
Neighbor list builds = 0
Dangerous builds = 0
Minimized PE/atom: -2.64261162410194 eV/atom
=== STAGE 2: NPT Equilibration at 200 K ===
No /omp style for force computation currently active
Setting up Verlet run ...
  Unit style    : metal
  Current step  : 0
  Time step     : 0.002
Per MPI rank memory allocation (min/avg/max) = 18.33 | 18.33 | 18.33 Mbytes
   Step          Temp          PotEng         KinEng         TotEng         Press          Volume           Lx             Ly             Lz      
         0   200           -1141.6082      11.142224     -1130.466      -145353.57      10077.696      15.273506      26.454489      24.941532    
       500   500.5452      -1754.6795      27.885935     -1726.7935      2004.7412      5251.4841      12.290768      21.288235      20.07074     
      1000   175.33462     -1794.5193      9.7680887     -1784.7512      11.053502      5148.0798      12.209562      21.147582      19.938132    
      1500   204.50265     -1794.6652      11.393072     -1783.2722     -235.64065      5146.7638      12.208522      21.14578       19.936433    
      2000   220.39131     -1797.1311      12.278247     -1784.8529      1381.941       5138.9629      12.202351      21.135091      19.926355    
      2500   188.02151     -1799.0695      10.474889     -1788.5946     -417.79882      5140.0946      12.203246      21.136642      19.927818    
      3000   184.09211     -1800.6375      10.255978     -1790.3815     -3.5610987      5130.7547      12.19585       21.123832      19.91574     
      3500   186.11568     -1799.9424      10.368713     -1789.5737     -930.27531      5136.3176      12.200256      21.131464      19.922935    
      4000   216.34709     -1800.5361      12.052939     -1788.4831     -739.89844      5133.8954      12.198338      21.128142      19.919803    
      4500   212.99852     -1801.1376      11.866387     -1789.2712     -97.754467      5137.8988      12.201508      21.133632      19.92498     
      5000   191.4591      -1801.8437      10.666401     -1791.1773      260.2355       5131.8111      12.196687      21.125282      19.917107    
      5500   184.54262     -1801.8699      10.281077     -1791.5888      2069.2977      5123.9427      12.190451      21.11448       19.906922    
      6000   204.4411      -1801.7801      11.389643     -1790.3905     -3288.7089      5141.0265      12.203984      21.13792       19.929022    
      6500   211.6395      -1801.1583      11.790674     -1789.3676      724.71963      5131.96        12.196805      21.125486      19.9173      
      7000   202.61008     -1801.3821      11.287635     -1790.0945     -792.54436      5134.7775      12.199037      21.129352      19.920944    
      7500   197.8745      -1802.3147      11.023811     -1791.2909     -2914.8545      5141.9074      12.204681      21.139127      19.93016     
      8000   180.60487     -1801.2215      10.0617       -1791.1598      4619.1581      5117.3465      12.185217      21.105415      19.898376    
      8500   201.71534     -1801.1417      11.237788     -1789.9039     -1151.5537      5139.9682      12.203146      21.136469      19.927654    
      9000   217.9975      -1801.7978      12.144885     -1789.653       257.21991      5132.0753      12.196897      21.125645      19.917449    
      9500   206.76109     -1801.9966      11.518892     -1790.4777      408.68757      5130.8465      12.195923      21.123958      19.915859    
     10000   196.88189     -1802.2011      10.968511     -1791.2326     -4169.1056      5145.5822      12.207587      21.144162      19.934907    
     10500   193.58708     -1801.4225      10.784953     -1790.6375      4181.5221      5116.2828      12.184373      21.103953      19.896998    
     11000   203.59846     -1801.0341      11.342699     -1789.6914     -3403.0937      5143.9167      12.20627       21.14188       19.932756    
     11500   204.50684     -1801.2347      11.393306     -1789.8414      1092.737       5127.8719      12.193566      21.119875      19.91201     
     12000   190.54987     -1801.6374      10.615747     -1791.0216     -637.38711      5133.3289      12.19789       21.127365      19.91907     
     12500   186.68821     -1801.6664      10.40061      -1791.2658      2776.7676      5124.6828      12.191037      21.115496      19.907881    
     13000   202.23052     -1801.4067      11.266489     -1790.1402     -3751.2135      5143.48        12.205925      21.141282      19.932192    
     13500   207.77184     -1801.038       11.575202     -1789.4628      1847.1799      5127.2386      12.193064      21.119006      19.91119     
     14000   206.4826      -1801.7399      11.503377     -1790.2366     -4934.6277      5145.668       12.207655      21.144279      19.935018    
     14500   188.62865     -1801.614       10.508714     -1791.1053      6943.4653      5108.6257      12.178291      21.09342       19.887067    
     15000   198.25967     -1801.9098      11.045269     -1790.8645     -5049.0023      5146.991       12.208701      21.146091      19.936726    
     15500   203.56775     -1801.1221      11.340988     -1789.7811      1969.2844      5125.3797      12.19159       21.116453      19.908783    
     16000   195.64183     -1800.8751      10.899426     -1789.9757     -1707.8645      5139.1299      12.202483      21.13532       19.926571    
     16500   195.37705     -1801.6791      10.884675     -1790.7944      481.78794      5129.8439      12.195129      21.122582      19.914562    
     17000   190.03363     -1802.3909      10.586987     -1791.8039      1124.1171      5126.0496      12.192121      21.117373      19.90965     
     17500   197.07198     -1801.6179      10.979101     -1790.6388      782.96         5131.3606      12.19633       21.124664      19.916524    
     18000   205.16613     -1801.3279      11.430035     -1789.8979      1038.3564      5129.8801      12.195157      21.122632      19.914608    
     18500   211.92896     -1802.3511      11.8068       -1790.5443      940.79792      5126.9369      12.192825      21.118592      19.910799    
     19000   191.76453     -1801.9572      10.683417     -1791.2737     -1131.6863      5133.5046      12.198029      21.127606      19.919298    
     19500   190.75502     -1801.8017      10.627176     -1791.1745     -2033.6853      5136.6557      12.200524      21.131928      19.923372    
     20000   210.12914     -1802.34        11.70653      -1790.6334      4326.246       5118.2532      12.185937      21.106662      19.899552    
Loop time of 478.622 on 8 procs for 20000 steps with 432 atoms

Performance: 7.221 ns/day, 3.324 hours/ns, 41.787 timesteps/s, 18.052 katom-step/s
92.9% CPU use with 1 MPI tasks x 8 OpenMP threads

MPI task timing breakdown:
Section |  min time  |  avg time  |  max time  |%varavg| %total
---------------------------------------------------------------
Pair    | 439.71     | 439.71     | 439.71     |   0.0 | 91.87
Neigh   | 0.02374    | 0.02374    | 0.02374    |   0.0 |  0.00
Comm    | 0.53435    | 0.53435    | 0.53435    |   0.0 |  0.11
Output  | 0.004555   | 0.004555   | 0.004555   |   0.0 |  0.00
Modify  | 38.268     | 38.268     | 38.268     |   0.0 |  8.00
Other   |            | 0.08485    |            |       |  0.02

Nlocal:            432 ave         432 max         432 min
Histogram: 1 0 0 0 0 0 0 0 0 0
Nghost:           2723 ave        2723 max        2723 min
Histogram: 1 0 0 0 0 0 0 0 0 0
Neighs:          38043 ave       38043 max       38043 min
Histogram: 1 0 0 0 0 0 0 0 0 0
FullNghs:        76086 ave       76086 max       76086 min
Histogram: 1 0 0 0 0 0 0 0 0 0

Total # of neighbors = 76086
Ave neighs/atom = 176.125
Neighbor list builds = 17
Dangerous builds = 0
=== STAGE 3: NPT Production at 200 K ===
No /omp style for force computation currently active
Setting up Verlet run ...
  Unit style    : metal
  Current step  : 0
  Time step     : 0.001
Per MPI rank memory allocation (min/avg/max) = 18.71 | 18.71 | 18.71 Mbytes
   Step          Temp          PotEng         KinEng         TotEng         Press          Volume           Lx             Ly             Lz      
         0   210.12914     -1802.34        11.70653      -1790.6334      4326.246       5118.2532      12.185937      21.106662      19.899552    
       500   189.46456     -1801.8304      10.555283     -1791.2751      2393.6382      5125.952       12.192044      21.117239      19.909524    
      1000   195.17334     -1802.9144      10.873326     -1792.041      -319.65727      5127.348       12.19315       21.119156      19.911331    
      1500   206.70594     -1801.8998      11.51582      -1790.384       995.92481      5126.431       12.192424      21.117897      19.910144    
      2000   194.39478     -1801.7613      10.829951     -1790.9314     -1184.7289      5133.2044      12.197791      21.127194      19.918909    
      2500   191.08035     -1801.8321      10.645301     -1791.1868      874.34987      5129.5784      12.194918      21.122218      19.914218    
      3000   203.33884     -1802.4213      11.328235     -1791.093       444.81979      5127.8124      12.193519      21.119794      19.911932    
      3500   206.93221     -1802.3785      11.528425     -1790.8501      9.4678799      5128.8593      12.194348      21.121231      19.913287    
      4000   199.96796     -1801.1848      11.140439     -1790.0444      1746.6825      5126.0743      12.192141      21.117407      19.909682    
      4500   212.70008     -1802.0989      11.84976      -1790.2492     -1427.9817      5136.9884      12.200788      21.132384      19.923803    
      5000   213.97371     -1802.6305      11.920716     -1790.7098      6752.669       5108.849       12.178469      21.093727      19.887356    
      5500   194.09103     -1802.3211      10.813029     -1791.5081     -4633.2221      5143.7999      12.206178      21.14172       19.932605    
      6000   193.48436     -1802.8123      10.779231     -1792.033      -1518.8096      5132.2097      12.197003      21.125829      19.917623    
      6500   201.65968     -1801.6909      11.234687     -1790.4562     -361.24286      5135.0102      12.199221      21.129671      19.921245    
      7000   208.97885     -1801.7518      11.642446     -1790.1094      3354.3799      5122.0711      12.188966      21.111909      19.904498    
      7500   208.28639     -1801.3755      11.603868     -1789.7716      861.87804      5131.6884      12.19659       21.125114      19.916948    
      8000   200.82808     -1801.8752      11.188358     -1790.6869     -5162.6233      5148.7726      12.21011       21.148531      19.939026    
      8500   198.69633     -1802.2095      11.069596     -1791.1399      4484.9937      5113.0491      12.181805      21.099506      19.892805    
      9000   194.35987     -1802.4184      10.828007     -1791.5903     -1939.1937      5136.7096      12.200567      21.132002      19.923442    
      9500   204.64335     -1802.4664      11.400911     -1791.0655     -2946.6888      5139.6864      12.202923      21.136083      19.92729     
     10000   208.74919     -1801.9358      11.629652     -1790.3062     -2073.3609      5137.2695      12.20101       21.132769      19.924166    
     10500   190.15926     -1801.9381      10.593986     -1791.3441      3504.9935      5120.7424      12.187912      21.110083      19.902777    
     11000   199.07532     -1802.9505      11.090709     -1791.8598      3309.5533      5118.5061      12.186138      21.107009      19.899879    
     11500   196.64099     -1801.8699      10.955091     -1790.9149     -7203.249       5153.8306      12.214107      21.155454      19.945553    
     12000   201.25796     -1802.0249      11.212307     -1790.8126      2317.0154      5121.4102      12.188442      21.111001      19.903642    
     12500   199.0693      -1802.8808      11.090374     -1791.7904      2575.6602      5119.0668      12.186583      21.10778       19.900606    
     13000   187.3415      -1802.0869      10.437005     -1791.6499      1061.9062      5122.3237      12.189166      21.112256      19.904826    
     13500   209.59305     -1801.68        11.676664     -1790.0033     -6881.1776      5153.1332      12.213556      21.154499      19.944653    
     14000   212.02576     -1802.0539      11.812193     -1790.2418      3909.1871      5117.3952      12.185256      21.105482      19.89844     
     14500   200.85363     -1802.5908      11.189781     -1791.401      -5019.0084      5146.5681      12.208367      21.145512      19.93618     
     15000   200.05279     -1802.7232      11.145165     -1791.578       636.34859      5125.9313      12.192027      21.117211      19.909497    
     15500   193.01575     -1801.532       10.753124     -1790.7788     -1510.1527      5137.6042      12.201275      21.133228      19.924599    
     16000   200.32264     -1802.229       11.160199     -1791.0688      1028.1356      5127.6158      12.193363      21.119524      19.911678    
     16500   177.94181     -1801.8177      9.913338      -1791.9044      1101.2677      5128.3102      12.193913      21.120477      19.912577    
     17000   194.56789     -1801.5911      10.839595     -1790.7515      846.09973      5129.4642      12.194828      21.122061      19.91407     
     17500   224.16874     -1802.716       12.488692     -1790.2273      754.82654      5125.4835      12.191672      21.116596      19.908918    
     18000   204.25192     -1801.6189      11.379104     -1790.2398     -6670.6439      5154.4224      12.214574      21.156263      19.946316    
     18500   197.99385     -1802.1766      11.03046      -1791.1461      368.64738      5127.0679      12.192928      21.118772      19.910969    
     19000   184.67674     -1802.2144      10.288548     -1791.9258      849.04237      5127.0717      12.192931      21.118777      19.910974    
     19500   206.67827     -1802.0606      11.514278     -1790.5463     -130.70812      5128.7846      12.194289      21.121128      19.913191    
     20000   204.38546     -1801.5539      11.386543     -1790.1673      285.54593      5132.7346      12.197419      21.126549      19.918302    
     20500   210.00982     -1802.5607      11.699883     -1790.8609      1032.3838      5124.3609      12.190782      21.115054      19.907464    
     21000   198.29046     -1801.6696      11.046984     -1790.6226     -1251.5363      5136.4331      12.200348      21.131622      19.923085    
     21500   208.47231     -1801.7528      11.614226     -1790.1386      1857.5352      5127.0698      12.19293       21.118774      19.910971    
     22000   203.24484     -1802.1023      11.322998     -1790.7793     -1226.3404      5132.4586      12.1972        21.126171      19.917945    
     22500   200.54655     -1802.5688      11.172674     -1791.3962      1712.9812      5125.0784      12.191351      21.11604       19.908393    
     23000   215.85129     -1801.4035      12.025318     -1789.3782     -2791.395       5141.8345      12.204623      21.139027      19.930066    
     23500   207.22908     -1801.8943      11.544965     -1790.3493      1963.2446      5125.0633      12.191339      21.116019      19.908373    
     24000   205.16613     -1802.4345      11.430036     -1791.0044     -3634.3841      5141.1155      12.204054      21.138042      19.929137    
     24500   204.8814      -1802.2244      11.414173     -1790.8102      2346.0664      5121.6237      12.188611      21.111294      19.903919    
     25000   214.68232     -1801.7101      11.960193     -1789.7499     -2078.3097      5139.3316      12.202642      21.135597      19.926832    
     25500   196.26949     -1802.0987      10.934394     -1791.1643     -1149.5702      5132.0929      12.196911      21.125669      19.917472    
     26000   194.72563     -1801.8967      10.848383     -1791.0483     -1031.683       5131.3083      12.196289      21.124592      19.916457    
     26500   200.51919     -1802.0571      11.171149     -1790.886       960.8165       5129.2745      12.194677      21.121801      19.913825    
     27000   207.48705     -1801.7497      11.559337     -1790.1904      1685.1996      5127.0267      12.192896      21.118715      19.910915    
     27500   204.00732     -1801.2986      11.365477     -1789.9331     -6275.4032      5151.198       12.212027      21.151851      19.942156    
     28000   192.84176     -1801.7173      10.743431     -1790.9738      2113.6936      5122.0138      12.188921      21.11183       19.904424    
     28500   204.65986     -1802.3942      11.401831     -1790.9924      812.18276      5127.6681      12.193404      21.119596      19.911746    
     29000   195.21711     -1801.6321      10.875764     -1790.7563     -1144.207       5133.9373      12.198372      21.128199      19.919857    
     29500   218.72649     -1802.4712      12.185498     -1790.2857      51.524664      5129.5968      12.194933      21.122243      19.914242    
     30000   201.8159      -1801.3817      11.24339      -1790.1383     -2567.7898      5139.1094      12.202467      21.135292      19.926544    
     30500   203.28517     -1802.2841      11.325245     -1790.9588     -547.42398      5131.3604      12.19633       21.124664      19.916524    
     31000   201.38827     -1802.27        11.219567     -1791.0505      1863.6925      5124.3466      12.190771      21.115035      19.907445    
     31500   218.11841     -1802.3318      12.151622     -1790.1802     -2715.4372      5140.1485      12.203289      21.136716      19.927887    
     32000   193.47692     -1802.1703      10.778816     -1791.3914      2217.7051      5122.5392      12.189337      21.112552      19.905105    
     32500   191.06565     -1802.4991      10.644482     -1791.8547     -873.78702      5130.6443      12.195763      21.123681      19.915597    
     33000   191.50698     -1801.7601      10.669069     -1791.091      -2328.7157      5138.2023      12.201748      21.134048      19.925372    
     33500   209.44322     -1802.2365      11.668317     -1790.5682     -829.41999      5133.0062      12.197634      21.126922      19.918653    
     34000   198.97812     -1801.4706      11.085295     -1790.3853     -4436.3694      5146.2816      12.20814       21.14512       19.93581     
     34500   208.56408     -1801.8952      11.619339     -1790.2759      3121.4383      5123.8969      12.190414      21.114417      19.906863    
     35000   202.80806     -1801.8211      11.298665     -1790.5224     -23.91258       5134.782       12.19904       21.129358      19.92095     
     35500   196.87226     -1802.0017      10.967974     -1791.0337      1939.8642      5125.0603      12.191337      21.116015      19.90837     
     36000   204.71297     -1802.3847      11.404789     -1790.9799      1374.4594      5127.2706      12.193089      21.11905       19.911231    
     36500   206.22778     -1801.6466      11.489181     -1790.1574      2337.1609      5123.632       12.190204      21.114053      19.90652     
     37000   202.16869     -1801.5172      11.263045     -1790.2542     -1769.1836      5136.2883      12.200233      21.131424      19.922897    
     37500   205.55589     -1802.0397      11.451749     -1790.5879      902.12156      5125.3668      12.19158       21.116436      19.908766    
     38000   202.21296     -1802.2668      11.265511     -1791.0013      2515.099       5121.387       12.188423      21.110969      19.903612    
     38500   193.20463     -1802.2121      10.763647     -1791.4484      1652.6693      5124.234       12.190682      21.11488       19.9073      
     39000   197.49503     -1802.7454      11.00267      -1791.7427      2208.5889      5123.7817      12.190323      21.114259      19.906714    
     39500   208.53831     -1802.4571      11.617904     -1790.8392     -1286.1917      5134.4117      12.198747      21.12885       19.920471    
     40000   188.66471     -1801.2543      10.510723     -1790.7436      247.07886      5129.6166      12.194949      21.12227       19.914268    
     40500   200.01512     -1802.0704      11.143067     -1790.9274      2964.0226      5119.245       12.186724      21.108025      19.900837    
     41000   188.65713     -1801.6147      10.5103       -1791.1044     -2392.9988      5137.5426      12.201226      21.133144      19.924519    
     41500   195.90588     -1801.7145      10.914136     -1790.8004      414.28484      5128.3073      12.193911      21.120473      19.912573    
     42000   195.96865     -1801.5027      10.917633     -1790.585       2924.8351      5120.539       12.187751      21.109803      19.902514    
     42500   206.0866      -1802.3122      11.481316     -1790.8309      1398.7158      5124.2476      12.190692      21.114899      19.907317    
     43000   198.84139     -1802.822       11.077677     -1791.7444      433.13163      5127.5294      12.193294      21.119405      19.911566    
     43500   192.94445     -1802.1371      10.749152     -1791.388      -3110.0538      5140.0975      12.203249      21.136646      19.927821    
     44000   188.23043     -1801.6465      10.486529     -1791.16        1061.9802      5125.6341      12.191792      21.116803      19.909112    
     44500   206.24504     -1800.7474      11.490143     -1789.2572      173.97422      5134.0946      12.198496      21.128415      19.920061    
     45000   209.59741     -1801.7928      11.676907     -1790.1158     -28.591633      5130.5406      12.195681      21.123539      19.915463    
     45500   208.00274     -1802.3687      11.588066     -1790.7806     -266.7531       5128.686       12.194211      21.120993      19.913063    
     46000   190.4607      -1801.9141      10.610779     -1791.3033     -167.00885      5131.9416      12.196791      21.125461      19.917276    
     46500   189.7463      -1802.7798      10.57098      -1792.2088     -371.92879      5130.9911      12.196038      21.124157      19.916046    
     47000   203.31819     -1801.7061      11.327085     -1790.379      -928.69054      5132.1226      12.196934      21.12571       19.91751     
     47500   197.83832     -1801.8732      11.021795     -1790.8514      1352.7561      5128.9147      12.194392      21.121307      19.913359    
     48000   203.23979     -1802.4428      11.322717     -1791.1201      4898.5833      5113.4109      12.182093      21.100004      19.893274    
     48500   204.27338     -1801.9473      11.3803       -1790.567       610.38085      5126.8189      12.192731      21.11843       19.910646    
     49000   203.17751     -1801.4676      11.319247     -1790.1483      1272.9912      5127.3766      12.193173      21.119195      19.911368    
     49500   199.39933     -1801.9441      11.108761     -1790.8353     -2343.0924      5135.977       12.199987      21.130997      19.922495    
     50000   198.57602     -1801.8801      11.062893     -1790.8172      6028.1541      5111.4107      12.180504      21.097252      19.89068     
Loop time of 831.839 on 8 procs for 50000 steps with 432 atoms

Performance: 5.193 ns/day, 4.621 hours/ns, 60.108 timesteps/s, 25.967 katom-step/s
94.1% CPU use with 1 MPI tasks x 8 OpenMP threads

MPI task timing breakdown:
Section |  min time  |  avg time  |  max time  |%varavg| %total
---------------------------------------------------------------
Pair    | 760.58     | 760.58     | 760.58     |   0.0 | 91.43
Neigh   | 0          | 0          | 0          |   0.0 |  0.00
Comm    | 0.79591    | 0.79591    | 0.79591    |   0.0 |  0.10
Output  | 0.007973   | 0.007973   | 0.007973   |   0.0 |  0.00
Modify  | 70.326     | 70.326     | 70.326     |   0.0 |  8.45
Other   |            | 0.1278     |            |       |  0.02

Nlocal:            432 ave         432 max         432 min
Histogram: 1 0 0 0 0 0 0 0 0 0
Nghost:           2720 ave        2720 max        2720 min
Histogram: 1 0 0 0 0 0 0 0 0 0
Neighs:          38083 ave       38083 max       38083 min
Histogram: 1 0 0 0 0 0 0 0 0 0
FullNghs:        76166 ave       76166 max       76166 min
Histogram: 1 0 0 0 0 0 0 0 0 0

Total # of neighbors = 76166
Ave neighs/atom = 176.31019
Neighbor list builds = 0
Dangerous builds = 0

=== FINAL RESULTS: HCP at 200 K ===
Atoms: 432 | PE/atom: -4.17126879543082 eV/atom
WARNING: Detected non-ASCII characters in input. Will try to continue by replacing with ASCII equivalents where known. (src/input.cpp:479)
Volume: 5111.41065137451 …³ | Area: 256.975161335118 ²
==========================================
HCP 200 432 -4.17126879543082 5111.41065137451 12.1805040350623 21.097251853897 19.8906798027408 256.975161335118
Simulation complete!
Total wall time: 0:21:50
