LAMMPS (10 Sep 2025)
  using 8 OpenMP thread(s) per MPI task
Loaded 1 plugins from C:\Users\harsh\Downloads\LAMMPS 64-bit 10Sep2025\plugins
using multi-threaded neighbor list subroutines
Reading data file ...
  orthogonal box = (0 0 0) to (15.273506 26.454489 24.941532)
  1 by 1 by 1 MPI processor grid
  reading atoms ...
  432 atoms
  read_data CPU = 0.003 seconds
=== STAGE 1: Energy Minimization ===
Switching to 'neigh_modify every 1 delay 0 check yes' setting during minimization
No /omp style for force computation currently active
Neighbor list info ...
  update: every = 1 steps, delay = 0 steps, check = yes
  max neighbors/atom: 4000, page size: 100000
  master list distance cutoff = 8
  ghost atom cutoff = 8
  binsize = 4, bins = 4 7 7
  2 neighbor lists, perpetual/occasional/extra = 2 0 0
  (1) pair meam, perpetual
      attributes: full, newton on, omp
      pair build: full/bin/atomonly/omp
      stencil: full/bin/3d
      bin: standard
  (2) pair meam, perpetual, half/full from (1)
      attributes: half, newton on, omp
      pair build: halffull/newton/omp
      stencil: none
      bin: none
Setting up cg style minimization ...
  Unit style    : metal
  Current step  : 0
Per MPI rank memory allocation (min/avg/max) = 19.46 | 19.46 | 19.46 Mbytes
   Step          Temp          PotEng         KinEng         TotEng         Press          Volume           Lx             Ly             Lz      
         0   0             -1141.6082      0             -1141.6082     -146534.51      10077.696      15.273506      26.454489      24.941532    
         1   0             -1141.6082      0             -1141.6082     -146534.51      10077.696      15.273506      26.454489      24.941532    
Loop time of 0.032698 on 8 procs for 1 steps with 432 atoms

95.6% CPU use with 1 MPI tasks x 8 OpenMP threads

Minimization stats:
  Stopping criterion = energy tolerance
  Energy initial, next-to-last, final = 
     -1141.60822161205  -1141.60822161205  -1141.60822161204
  Force two-norm initial, final = 5.1728099e-07 1.447416e-07
  Force max component initial, final = 3.7463984e-08 9.3849878e-09
  Final line search alpha, max atom move = 1 9.3849878e-09
  Iterations, force evaluations = 1 2

MPI task timing breakdown:
Section |  min time  |  avg time  |  max time  |%varavg| %total
---------------------------------------------------------------
Pair    | 0.031848   | 0.031848   | 0.031848   |   0.0 | 97.40
Neigh   | 0          | 0          | 0          |   0.0 |  0.00
Comm    | 4.1e-05    | 4.1e-05    | 4.1e-05    |   0.0 |  0.13
Output  | 0          | 0          | 0          |   0.0 |  0.00
Modify  | 0.000661   | 0.000661   | 0.000661   |   0.0 |  2.02
Other   |            | 0.000148   |            |       |  0.45

Nlocal:            432 ave         432 max         432 min
Histogram: 1 0 0 0 0 0 0 0 0 0
Nghost:           1821 ave        1821 max        1821 min
Histogram: 1 0 0 0 0 0 0 0 0 0
Neighs:          22032 ave       22032 max       22032 min
Histogram: 1 0 0 0 0 0 0 0 0 0
FullNghs:        44064 ave       44064 max       44064 min
Histogram: 1 0 0 0 0 0 0 0 0 0

Total # of neighbors = 44064
Ave neighs/atom = 102
Neighbor list builds = 0
Dangerous builds = 0
Minimized PE/atom: -2.64261162410194 eV/atom
=== STAGE 2: NPT Equilibration at 650 K ===
No /omp style for force computation currently active
Setting up Verlet run ...
  Unit style    : metal
  Current step  : 0
  Time step     : 0.002
Per MPI rank memory allocation (min/avg/max) = 18.33 | 18.33 | 18.33 Mbytes
   Step          Temp          PotEng         KinEng         TotEng         Press          Volume           Lx             Ly             Lz      
         0   650           -1141.6082      36.21223      -1105.396      -142696.44      10077.696      15.273506      26.454489      24.941532    
       500   1233.5012     -1700.0171      68.719735     -1631.2974     -4147.4207      5439.7195      12.435899      21.539608      20.307737    
      1000   600.98916     -1772.9583      33.481781     -1739.4765      733.64876      5204.3717      12.253903      21.224383      20.01054     
      1500   644.89642     -1774.0863      35.927903     -1738.1584     -2105.4304      5210.2485      12.258514      21.232368      20.018069    
      2000   697.55394     -1773.7648      38.861513     -1734.9033     -450.11048      5210.8962      12.259022      21.233248      20.018898    
      2500   676.23649     -1774.7161      37.673894     -1737.0422      972.24819      5206.4832      12.25556       21.227253      20.013246    
      3000   635.54125     -1778.3567      35.406717     -1742.95        1176.4204      5195.6975      12.247091      21.212584      19.999416    
      3500   602.01324     -1778.4605      33.538833     -1744.9216      2714.9276      5185.0482      12.238718      21.198082      19.985743    
      4000   664.86653     -1777.4193      37.040461     -1740.3789      3309.5169      5190.5545      12.243049      21.205583      19.992815    
      4500   706.56414     -1776.8518      39.363481     -1737.4883     -49.244382      5200.4435      12.250819      21.219041      20.005504    
      5000   658.98976     -1777.3752      36.713059     -1740.6621      364.27248      5193.0833      12.245037      21.209026      19.996062    
      5500   620.71483     -1778.8018      34.58072      -1744.221       3539.027       5180.4229      12.235078      21.191777      19.979799    
      6000   594.06249     -1776.0314      33.095888     -1742.9355      3685.319       5187.1138      12.240343      21.200896      19.988397    
      6500   662.33521     -1775.5604      36.899438     -1738.661       3481.4957      5187.1998      12.240411      21.201014      19.988507    
      7000   646.26379     -1775.0551      36.004081     -1739.051       2661.6243      5189.4374      12.242171      21.204061      19.991381    
      7500   657.54517     -1780.7418      36.63258      -1744.1092      2703.1851      5181.0472      12.235569      21.192628      19.980601    
      8000   666.04925     -1780.9192      37.106351     -1743.8129      1276.8008      5181.5191      12.235941      21.193271      19.981208    
      8500   629.78464     -1776.6898      35.086009     -1741.6038      1150.7389      5192.4376      12.244529      21.208147      19.995233    
      9000   669.2665      -1777.2065      37.285588     -1739.9209     -1902.2837      5207.8697      12.256648      21.229137      20.015022    
      9500   692.234       -1777.2799      38.565133     -1738.7147     -5264.0211      5219.0335      12.265399      21.244295      20.029314    
     10000   662.65271     -1779.7036      36.917126     -1742.7865     -7407.4365      5219.1741      12.26551       21.244486      20.029493    
     10500   641.04835     -1779.1159      35.713523     -1743.4024     -11084.671      5229.6313      12.273696      21.258665      20.042861    
     11000   689.42583     -1776.9237      38.408687     -1738.5151     -14511.482      5248.8384      12.288704      21.284659      20.067369    
     11500   693.49415     -1777.2267      38.635338     -1738.5913     -9631.5094      5232.797       12.276172      21.262954      20.046905    
     12000   629.07445     -1779.329       35.046444     -1744.2826     -3403.9549      5204.4419      12.253958      21.224478      20.01063     
     12500   621.19561     -1778.2221      34.607505     -1743.6146     -166.90287      5195.1518      12.246662      21.211842      19.998716    
     13000   689.11597     -1774.1515      38.391424     -1735.7601      201.03297      5208.183       12.256894      21.229562      20.015423    
     13500   632.57206     -1778.0287      35.2413       -1742.7874      3053.2716      5185.2057      12.238842      21.198296      19.985945    
     14000   635.09859     -1778.693       35.382056     -1743.311       2290.3639      5184.7525      12.238485      21.197679      19.985363    
     14500   637.59569     -1780.0761      35.521172     -1744.5549      2564.6705      5178.2789      12.23339       21.188853      19.977042    
     15000   676.06966     -1779.6589      37.6646       -1741.9943      1932.6805      5185.7649      12.239282      21.199058      19.986664    
     15500   640.90552     -1776.84        35.705566     -1741.1344      4697.2713      5186.1257      12.239566      21.19955       19.987127    
     16000   642.30001     -1777.2788      35.783255     -1741.4955      3282.6078      5187.8469      12.24092       21.201895      19.989338    
     16500   651.74811     -1779.6441      36.309619     -1743.3345      1542.4839      5186.7579      12.240063      21.200411      19.98794     
     17000   664.18226     -1780.5003      37.002339     -1743.498       59.296464      5191.3168      12.243648      21.206621      19.993794    
     17500   672.69224     -1778.0315      37.47644      -1740.555      -3267.0673      5212.1012      12.259966      21.234885      20.020441    
     18000   669.24074     -1775.1175      37.284153     -1737.8333     -6729.9714      5231.4804      12.275142      21.26117       20.045223    
     18500   641.27035     -1779.7334      35.725891     -1744.0075     -7760.2063      5218.2449      12.264782      21.243225      20.028305    
     19000   659.61993     -1780.1183      36.748167     -1743.3701     -5452.5672      5212.6553      12.260401      21.235637      20.021151    
     19500   660.75501     -1776.6463      36.811404     -1739.8349     -2193.1522      5217.0941      12.26388       21.241663      20.026832    
     20000   663.2607      -1775.718       36.950998     -1738.767      -3640.6606      5211.0528      12.259144      21.233461      20.019099    
Loop time of 316.742 on 8 procs for 20000 steps with 432 atoms

Performance: 10.911 ns/day, 2.200 hours/ns, 63.143 timesteps/s, 27.278 katom-step/s
94.3% CPU use with 1 MPI tasks x 8 OpenMP threads

MPI task timing breakdown:
Section |  min time  |  avg time  |  max time  |%varavg| %total
---------------------------------------------------------------
Pair    | 286.81     | 286.81     | 286.81     |   0.0 | 90.55
Neigh   | 0.021274   | 0.021274   | 0.021274   |   0.0 |  0.01
Comm    | 0.30047    | 0.30047    | 0.30047    |   0.0 |  0.09
Output  | 0.003396   | 0.003396   | 0.003396   |   0.0 |  0.00
Modify  | 29.557     | 29.557     | 29.557     |   0.0 |  9.33
Other   |            | 0.05148    |            |       |  0.02

Nlocal:            432 ave         432 max         432 min
Histogram: 1 0 0 0 0 0 0 0 0 0
Nghost:           2688 ave        2688 max        2688 min
Histogram: 1 0 0 0 0 0 0 0 0 0
Neighs:          37388 ave       37388 max       37388 min
Histogram: 1 0 0 0 0 0 0 0 0 0
FullNghs:        74776 ave       74776 max       74776 min
Histogram: 1 0 0 0 0 0 0 0 0 0

Total # of neighbors = 74776
Ave neighs/atom = 173.09259
Neighbor list builds = 23
Dangerous builds = 0
=== STAGE 3: NPT Production at 650 K ===
No /omp style for force computation currently active
Setting up Verlet run ...
  Unit style    : metal
  Current step  : 0
  Time step     : 0.001
Per MPI rank memory allocation (min/avg/max) = 18.91 | 18.91 | 18.91 Mbytes
   Step          Temp          PotEng         KinEng         TotEng         Press          Volume           Lx             Ly             Lz      
         0   663.2607      -1775.718       36.950998     -1738.767      -3640.6606      5211.0528      12.259144      21.233461      20.019099    
       500   654.52161     -1777.9756      36.464134     -1741.5114     -671.31017      5199.3838      12.249987      21.2176        20.004145    
      1000   648.82428     -1780.0938      36.146729     -1743.9471     -438.57842      5194.5226      12.246168      21.210985      19.997909    
      1500   642.85717     -1780.6736      35.814295     -1744.8593     -560.54411      5197.299       12.248349      21.214764      20.001471    
      2000   596.51301     -1778.926       33.232409     -1745.6936     -3230.7454      5201.7522      12.251847      21.220821      20.007182    
      2500   638.96676     -1780.094       35.597555     -1744.4965     -3803.252       5205.0064      12.254401      21.225245      20.011353    
      3000   634.88274     -1776.951       35.37003      -1741.581      -3264.5176      5210.484       12.258698      21.232688      20.018371    
      3500   690.08594     -1780.1779      38.445462     -1741.7324     -3607.0686      5207.1592      12.25609       21.228171      20.014112    
      4000   662.01173     -1781.2102      36.881417     -1744.3288     -2964.9169      5201.939       12.251993      21.221075      20.007421    
      4500   597.69871     -1780.1496      33.298466     -1746.8511     -2053.2629      5194.27        12.24597       21.210641      19.997585    
      5000   656.74927     -1777.5007      36.588239     -1740.9125     -609.1166       5199.6748      12.250216      21.217996      20.004518    
      5500   639.39075     -1776.8563      35.621177     -1741.2351      4227.5114      5189.166       12.241957      21.203692      19.991032    
      6000   686.89801     -1781.9467      38.267859     -1743.6788      5627.5221      5170.4045      12.227186      21.178107      19.966911    
      6500   640.87273     -1779.4777      35.703739     -1743.774       8762.2886      5163.1118      12.221434      21.168145      19.957519    
      7000   662.95622     -1779.7158      36.934035     -1742.7818      5901.6596      5169.9469      12.226825      21.177482      19.966322    
      7500   675.56526     -1779.9631      37.636499     -1742.3266      5116.6679      5176.4885      12.23198       21.18641       19.974739    
      8000   691.2411      -1777.3622      38.509818     -1738.8524      2502.9212      5190.7816      12.243228      21.205892      19.993107    
      8500   668.30034     -1775.579       37.231762     -1738.3472      2067.5353      5191.7628      12.243999      21.207228      19.994367    
      9000   651.96393     -1778.9156      36.321643     -1742.594       2954.8814      5186.5656      12.239912      21.200149      19.987693    
      9500   624.82531     -1778.5255      34.809719     -1743.7158     -268.18854      5193.2805      12.245192      21.209295      19.996315    
     10000   634.83552     -1778.0717      35.367399     -1742.7043      498.22414      5193.0079      12.244978      21.208923      19.995965    
     10500   644.92796     -1776.8645      35.92966      -1740.9348      678.34534      5196.1793      12.24747       21.21324       20.000034    
     11000   676.07243     -1776.497       37.664754     -1738.8323     -451.21285      5200.23        12.250652      21.218751      20.00523     
     11500   653.64485     -1778.6893      36.415288     -1742.274       1672.3985      5183.2712      12.23732       21.19566       19.98346     
     12000   619.82421     -1778.9708      34.531102     -1744.4397      4379.3903      5179.4865      12.234341      21.1905        19.978595    
     12500   652.20891     -1779.5442      36.335291     -1743.2089      950.90747      5184.4145      12.23822       21.197218      19.984929    
     13000   651.27954     -1778.2965      36.283514     -1742.013      -244.3446       5196.3383      12.247595      21.213456      20.000238    
     13500   659.97621     -1778.936       36.768015     -1742.168      -5030.6857      5212.7209      12.260452      21.235726      20.021235    
     14000   624.53076     -1777.8144      34.793309     -1743.0211     -5801.0085      5217.6322      12.264302      21.242393      20.027521    
     14500   648.52034     -1781.859       36.129796     -1745.7292     -8512.5361      5219.1394      12.265482      21.244439      20.029449    
     15000   647.20708     -1778.9227      36.056633     -1742.866      -6490.589       5216.9594      12.263774      21.24148       20.02666     
     15500   671.72975     -1779.049       37.422818     -1741.6262     -8298.8314      5221.8725      12.267623      21.248146      20.032945    
     16000   630.58261     -1780.1194      35.130465     -1744.989      -5942.5449      5207.0272      12.255987      21.227992      20.013943    
     16500   607.82498     -1778.2508      33.862612     -1744.3882     -1495.5557      5197.7042      12.248668      21.215315      20.001991    
     17000   620.7477      -1779.3133      34.582551     -1744.7308     -990.41112      5193.7273      12.245543      21.209903      19.996888    
     17500   662.43485     -1777.5043      36.904989     -1740.5994     -572.3439       5198.5196      12.249308      21.216424      20.003037    
     18000   648.57157     -1777.1907      36.13265      -1741.058      -507.10643      5196.2265      12.247507      21.213304      20.000095    
     18500   683.59851     -1775.0612      38.08404      -1736.9771     -1393.6055      5203.5619      12.253267      21.223282      20.009502    
     19000   639.27406     -1777.2852      35.614675     -1741.6706      4681.3118      5178.4145      12.233497      21.189038      19.977216    
     19500   679.69181     -1780.724       37.866393     -1742.8576      7208.5301      5166.9036      12.224425      21.173326      19.962403    
     20000   629.12231     -1779.6517      35.04911      -1744.6026      11993.238      5151.667       12.212397      21.152493      19.942762    
     20500   646.06518     -1778.6636      35.993017     -1742.6705      8731.227       5162.775       12.221169      21.167685      19.957085    
     21000   681.23198     -1779.1561      37.952199     -1741.2039      6242.3947      5172.3533      12.228722      21.180767      19.969419    
     21500   610.63915     -1778.1642      34.019392     -1744.1448      5703.9968      5173.7461      12.229819      21.182668      19.971211    
     22000   666.80101     -1779.2655      37.148232     -1742.1172      5659.6532      5169.3024      12.226317      21.176602      19.965492    
     22500   672.99573     -1777.1732      37.493348     -1739.6798      4746.0295      5183.8481      12.237774      21.196446      19.984201    
     23000   674.01531     -1777.8554      37.550149     -1740.3052      5114.3669      5180.7394      12.235327      21.192208      19.980206    
     23500   637.16792     -1781.7514      35.49734      -1746.2541      4920.7107      5166.5085      12.224114      21.172786      19.961894    
     24000   598.67677     -1776.0902      33.352955     -1742.7372      1790.7762      5191.4802      12.243777      21.206843      19.994004    
     24500   684.43622     -1779.3657      38.13071      -1741.235       1621.1956      5191.7416      12.243982      21.207199      19.994339    
     25000   665.73656     -1778.581       37.088931     -1741.492       1299.0338      5188.7329      12.241617      21.203102      19.990476    
     25500   635.70532     -1779.0392      35.415857     -1743.6233      2528.8422      5186.2034      12.239627      21.199656      19.987227    
     26000   644.9504      -1779.5863      35.930911     -1743.6554     -11.097151      5184.8273      12.238544      21.197781      19.985459    
     26500   694.67203     -1779.5186      38.700958     -1740.8176      1951.9695      5186.966       12.240227      21.200695      19.988207    
     27000   651.92957     -1778.6891      36.319728     -1742.3694      4100.1752      5174.5791      12.230476      21.183805      19.972283    
     27500   625.54219     -1777.9348      34.849658     -1743.0851      6284.6631      5175.5956      12.231276      21.185192      19.973591    
     28000   622.08218     -1779.3663      34.656897     -1744.7094      6997.1988      5162.7572      12.221155      21.167661      19.957062    
     28500   684.69494     -1779.4961      38.145123     -1741.3509      7962.4289      5161.1979      12.219924      21.165529      19.955052    
     29000   683.76596     -1775.2557      38.093369     -1737.1623      5488.0183      5182.995       12.237103      21.195283      19.983105    
     29500   671.58857     -1779.1249      37.414953     -1741.7099      3979.6506      5184.5013      12.238288      21.197336      19.98504     
     30000   687.8903      -1781.1831      38.323141     -1742.86        456.03719      5187.6568      12.24077       21.201636      19.989094    
     30500   638.51175     -1776.8199      35.572206     -1741.2477     -2317.9352      5203.2673      12.253036      21.222881      20.009124    
     31000   630.23996     -1780.3775      35.111375     -1745.2661     -4262.7909      5196.8718      12.248014      21.214182      20.000923    
     31500   637.6746      -1777.5289      35.525568     -1742.0034     -2416.9485      5200.6889      12.251012      21.219375      20.005819    
     32000   663.50848     -1778.0649      36.964802     -1741.1001     -7884.2659      5217.5729      12.264255      21.242313      20.027445    
     32500   625.0924      -1778.3958      34.824599     -1743.5712     -5936.2807      5215.6887      12.262779      21.239756      20.025034    
     33000   647.69181     -1780.8605      36.083638     -1744.7769     -5439.9869      5205.5835      12.254854      21.22603       20.012093    
     33500   663.03389     -1779.917       36.938362     -1742.9786     -5197.3462      5205.8903      12.255095      21.226447      20.012486    
     34000   676.86634     -1778.789       37.708984     -1741.08       -5833.0261      5208.7111      12.257308      21.23028       20.0161      
     34500   645.63142     -1779.2134      35.968851     -1743.2446     -5906.9781      5205.2742      12.254611      21.225609      20.011696    
     35000   675.65277     -1777.144       37.641374     -1739.5026     -6863.4207      5219.8283      12.266022      21.245373      20.03033     
     35500   687.0014      -1776.1313      38.273619     -1737.8577     -6577.0494      5220.473       12.266527      21.246248      20.031155    
     36000   642.61074     -1777.6369      35.800566     -1741.8363     -1722.8827      5204.3165      12.25386       21.224308      20.010469    
     36500   632.54555     -1779.0797      35.239823     -1743.8398     -43.398156      5190.909       12.243328      21.206066      19.99327     
     37000   630.09987     -1777.5307      35.103571     -1742.4271      1766.3714      5184.7784      12.238506      21.197714      19.985397    
     37500   658.14708     -1778.2988      36.666112     -1741.6327      4474.6589      5176.8863      12.232293      21.186953      19.975251    
     38000   637.4863      -1779.5647      35.515077     -1744.0497      9438.0728      5162.688       12.2211        21.167566      19.956973    
     38500   657.82726     -1779.56        36.648295     -1742.9117      7629.9966      5161.7749      12.220379      21.166318      19.955796    
     39000   660.94511     -1778.3862      36.821994     -1741.5642      14399.152      5150.4192      12.211411      21.150785      19.941151    
     39500   699.66433     -1778.406       38.979085     -1739.4269      13234.979      5148.4822      12.20988       21.148133      19.938651    
     40000   641.70533     -1778.7607      35.750124     -1743.0106      8118.4844      5166.2123      12.22388       21.172382      19.961513    
     40500   659.99303     -1780.7991      36.768952     -1744.0301      2583.5096      5177.335       12.232646      21.187565      19.975828    
     41000   666.6099      -1779.9473      37.137586     -1742.8098      1001.1021      5186.6088      12.239946      21.200208      19.987748    
     41500   680.20458     -1779.5501      37.894961     -1741.6551      2806.0872      5182.7549      12.236914      21.194956      19.982796    
     42000   645.04785     -1778.5441      35.93634      -1742.6078      1931.3221      5188.5419      12.241466      21.202842      19.990231    
     42500   634.941       -1778.8522      35.373276     -1743.4789      307.78381      5194.7042      12.246311      21.211232      19.998142    
     43000   625.66461     -1780.7455      34.856478     -1745.889      -3611.4789      5200.5749      12.250922      21.21922       20.005672    
     43500   624.65        -1778.8456      34.799953     -1744.0456     -5233.1287      5210.3241      12.258573      21.232471      20.018166    
     44000   646.04379     -1779.2526      35.991825     -1743.2608     -3410.7929      5206.9009      12.255888      21.22782       20.013781    
     44500   603.35241     -1779.9769      33.61344      -1746.3634      2204.597       5184.4409      12.23824       21.197254      19.984963    
     45000   656.34551     -1786.009       36.565745     -1749.4433     -15.553695      5177.269       12.232595      21.187475      19.975743    
     45500   711.41875     -1783.9565      39.633937     -1744.3226      1378.9693      5186.2624      12.239673      21.199736      19.987303    
     46000   726.97673     -1784.0031      40.50069      -1743.5024      3491.6087      5176.4011      12.231911      21.186291      19.974627    
     46500   646.94099     -1781.284       36.041808     -1745.2422      6589.055       5166.6445      12.224221      21.172972      19.962069    
     47000   653.06482     -1785.1829      36.382974     -1748.7999      6718.0702      5161.206       12.21993       21.16554       19.955063    
     47500   658.96616     -1784.6183      36.711744     -1747.9065      3492.3425      5171.196       12.22781       21.179188      19.96793     
     48000   639.58463     -1786.1096      35.631978     -1750.4776      664.46546      5176.1022      12.231675      21.185883      19.974242    
     48500   607.57521     -1785.6506      33.848697     -1751.8019      1822.0486      5172.8758      12.229134      21.181481      19.970091    
     49000   638.69204     -1786.2809      35.58225      -1750.6986      470.95736      5178.7864      12.233789      21.189545      19.977694    
     49500   647.32263     -1785.1134      36.063071     -1749.0503      775.70109      5180.7272      12.235318      21.192192      19.98019     
     50000   658.48064     -1783.1869      36.684696     -1746.5022     -185.82515      5196.6947      12.247875      21.213941      20.000696    
Loop time of 821.525 on 8 procs for 50000 steps with 432 atoms

Performance: 5.259 ns/day, 4.564 hours/ns, 60.862 timesteps/s, 26.293 katom-step/s
94.2% CPU use with 1 MPI tasks x 8 OpenMP threads

MPI task timing breakdown:
Section |  min time  |  avg time  |  max time  |%varavg| %total
---------------------------------------------------------------
Pair    | 746.97     | 746.97     | 746.97     |   0.0 | 90.92
Neigh   | 0.006542   | 0.006542   | 0.006542   |   0.0 |  0.00
Comm    | 0.84199    | 0.84199    | 0.84199    |   0.0 |  0.10
Output  | 0.008906   | 0.008906   | 0.008906   |   0.0 |  0.00
Modify  | 73.568     | 73.568     | 73.568     |   0.0 |  8.96
Other   |            | 0.133      |            |       |  0.02

Nlocal:            432 ave         432 max         432 min
Histogram: 1 0 0 0 0 0 0 0 0 0
Nghost:           2732 ave        2732 max        2732 min
Histogram: 1 0 0 0 0 0 0 0 0 0
Neighs:          37578 ave       37578 max       37578 min
Histogram: 1 0 0 0 0 0 0 0 0 0
FullNghs:        75156 ave       75156 max       75156 min
Histogram: 1 0 0 0 0 0 0 0 0 0

Total # of neighbors = 75156
Ave neighs/atom = 173.97222
Neighbor list builds = 7
Dangerous builds = 0

=== FINAL RESULTS: HCP at 650 K ===
Atoms: 432 | PE/atom: -4.12980221455913 eV/atom
WARNING: Detected non-ASCII characters in input. Will try to continue by replacing with ASCII equivalents where known. (src/input.cpp:479)
Volume: 5196.69467355884 …³ | Area: 259.825695815064 ²
==========================================
HCP 650 432 -4.12980221455913 5196.69467355884 12.2478747298147 21.2139413201685 20.0006956866103 259.825695815064
Simulation complete!
Total wall time: 0:18:58
