LAMMPS (10 Sep 2025)
  using 8 OpenMP thread(s) per MPI task
Loaded 1 plugins from C:\Users\harsh\Downloads\LAMMPS 64-bit 10Sep2025\plugins
using multi-threaded neighbor list subroutines
Reading data file ...
  orthogonal box = (0 0 0) to (15.273506 26.454489 24.941532)
  1 by 1 by 1 MPI processor grid
  reading atoms ...
  432 atoms
  read_data CPU = 0.002 seconds
=== STAGE 1: Energy Minimization ===
Switching to 'neigh_modify every 1 delay 0 check yes' setting during minimization
No /omp style for force computation currently active
Neighbor list info ...
  update: every = 1 steps, delay = 0 steps, check = yes
  max neighbors/atom: 4000, page size: 100000
  master list distance cutoff = 8
  ghost atom cutoff = 8
  binsize = 4, bins = 4 7 7
  2 neighbor lists, perpetual/occasional/extra = 2 0 0
  (1) pair meam, perpetual
      attributes: full, newton on, omp
      pair build: full/bin/atomonly/omp
      stencil: full/bin/3d
      bin: standard
  (2) pair meam, perpetual, half/full from (1)
      attributes: half, newton on, omp
      pair build: halffull/newton/omp
      stencil: none
      bin: none
Setting up cg style minimization ...
  Unit style    : metal
  Current step  : 0
Per MPI rank memory allocation (min/avg/max) = 19.4 | 19.4 | 19.4 Mbytes
   Step          Temp          PotEng         KinEng         TotEng         Press          Volume           Lx             Ly             Lz      
         0   0             -1173.0912      0             -1173.0912     -73170.651      10077.696      15.273506      26.454489      24.941532    
        10   0             -1313.9658      0             -1313.9658     -110808.98      10077.696      15.273506      26.454489      24.941532    
Loop time of 0.090924 on 8 procs for 10 steps with 432 atoms

68.7% CPU use with 1 MPI tasks x 8 OpenMP threads

Minimization stats:
  Stopping criterion = energy tolerance
  Energy initial, next-to-last, final = 
     -1173.09120531844  -1313.96583935997  -1313.96584711876
  Force two-norm initial, final = 21.647254 3.159101e-05
  Force max component initial, final = 1.4729091 2.1502518e-06
  Final line search alpha, max atom move = 1 2.1502518e-06
  Iterations, force evaluations = 10 16

MPI task timing breakdown:
Section |  min time  |  avg time  |  max time  |%varavg| %total
---------------------------------------------------------------
Pair    | 0.085562   | 0.085562   | 0.085562   |   0.0 | 94.10
Neigh   | 0          | 0          | 0          |   0.0 |  0.00
Comm    | 0.00015    | 0.00015    | 0.00015    |   0.0 |  0.16
Output  | 0          | 0          | 0          |   0.0 |  0.00
Modify  | 0.004924   | 0.004924   | 0.004924   |   0.0 |  5.42
Other   |            | 0.000288   |            |       |  0.32

Nlocal:            432 ave         432 max         432 min
Histogram: 1 0 0 0 0 0 0 0 0 0
Nghost:           1761 ave        1761 max        1761 min
Histogram: 1 0 0 0 0 0 0 0 0 0
Neighs:          20088 ave       20088 max       20088 min
Histogram: 1 0 0 0 0 0 0 0 0 0
FullNghs:        40176 ave       40176 max       40176 min
Histogram: 1 0 0 0 0 0 0 0 0 0

Total # of neighbors = 40176
Ave neighs/atom = 93
Neighbor list builds = 0
Dangerous builds = 0
Minimized PE/atom: -3.0415876090712 eV/atom
=== STAGE 2: NPT Equilibration at 650 K ===
No /omp style for force computation currently active
Setting up Verlet run ...
  Unit style    : metal
  Current step  : 0
  Time step     : 0.002
Per MPI rank memory allocation (min/avg/max) = 18.28 | 18.28 | 18.28 Mbytes
   Step          Temp          PotEng         KinEng         TotEng         Press          Volume           Lx             Ly             Lz      
         0   650           -1313.9658      36.21223      -1277.7536     -106970.91      10077.696      15.273506      26.454489      24.941532    
       500   1561.3316     -1613.9978      86.983536     -1527.0143     -28268.286      5882.0943      12.764261      22.108348      20.84395     
      1000   653.22112     -1758.0624      36.391682     -1721.6707     -1142.3858      5252.476       12.291542      21.289575      20.072004    
      1500   683.49212     -1767.3166      38.078113     -1729.2385     -2025.5391      5225.1418      12.270183      21.25258       20.037124    
      2000   676.14623     -1773.0064      37.668866     -1735.3376     -276.68021      5216.5892      12.263484      21.240978      20.026186    
      2500   642.49835     -1775.7471      35.794304     -1739.9528     -86.575037      5205.7458      12.254981      21.22625       20.012301    
      3000   628.08485     -1773.5523      34.991312     -1738.561       2490.0893      5204.8447      12.254274      21.225026      20.011146    
      3500   671.51936     -1773.7275      37.411098     -1736.3164      899.4891       5209.0282      12.257557      21.230711      20.016506    
      4000   676.64783     -1774.4127      37.69681      -1736.7159      1170.6779      5208.468       12.257117      21.22995       20.015788    
      4500   633.53487     -1775.1283      35.294939     -1739.8333      2726.5021      5196.5773      12.247783      21.213782      20.000545    
      5000   665.64123     -1779.2618      37.08362      -1742.1782     -531.29493      5198.7776      12.249511      21.216775      20.003368    
      5500   660.15148     -1773.8561      36.77778      -1737.0783     -1231.2137      5215.8697      12.262921      21.240001      20.025265    
      6000   700.27408     -1777.5703      39.013055     -1738.5573     -2773.0845      5214.1849      12.2616        21.237714      20.023109    
      6500   609.00208     -1776.405       33.928189     -1742.4768     -2368.8201      5215.6366      12.262738      21.239685      20.024967    
      7000   666.33246     -1781.1346      37.12213      -1744.0125     -6735.1355      5216.3197      12.263273      21.240612      20.025841    
      7500   668.73867     -1778.3758      37.256182     -1741.1196     -8145.979       5230.2387      12.274171      21.259488      20.043637    
      8000   668.68664     -1777.2052      37.253284     -1739.9519     -5701.8006      5225.0439      12.270106      21.252447      20.036999    
      8500   665.58538     -1776.0413      37.080509     -1738.9608     -5995.6512      5225.3707      12.270362      21.25289       20.037417    
      9000   661.77675     -1777.7738      36.868326     -1740.9055     -1106.0963      5204.4463      12.253962      21.224484      20.010635    
      9500   639.79935     -1779.2482      35.64394      -1743.6043      1683.1412      5191.8298      12.244052      21.207319      19.994453    
     10000   611.98932     -1778.1182      34.094612     -1744.0236      48.764381      5195.0635      12.246593      21.211721      19.998603    
     10500   709.17088     -1776.3334      39.508706     -1736.8246      1019.6437      5200.7127      12.251031      21.219407      20.005849    
     11000   722.38363     -1779.046       40.244803     -1738.8012      4682.2516      5185.4046      12.238999      21.198567      19.986201    
     11500   659.24604     -1777.92        36.727337     -1741.1926      7987.1372      5175.2808      12.231028      21.184763      19.973186    
     12000   632.18089     -1778.3525      35.219507     -1743.133       8892.0489      5168.4318      12.22563       21.175413      19.964371    
     12500   615.23824     -1778.8506      34.275613     -1744.575       10457.253      5165.1506      12.223043      21.170931      19.960145    
     13000   649.18907     -1781.1816      36.167052     -1745.0146      5216.9008      5166.2346      12.223898      21.172412      19.961542    
     13500   663.97748     -1777.0304      36.990931     -1740.0395      2290.9142      5193.2735      12.245186      21.209285      19.996306    
     14000   664.01755     -1778.7395      36.993163     -1741.7463      1465.4961      5190.9702      12.243376      21.206149      19.993349    
     14500   605.14771     -1780.6806      33.713458     -1746.9672      2231.8015      5183.2838      12.23733       21.195677      19.983476    
     15000   633.84047     -1777.2452      35.311964     -1741.9333     -2480.7652      5208.4836      12.257129      21.229971      20.015808    
     15500   658.78244     -1775.931       36.701509     -1739.2295     -4543.1992      5218.7572      12.265183      21.24392       20.02896     
     16000   653.76874     -1777.6706      36.42219      -1741.2485     -4773.6861      5219.0249      12.265393      21.244283      20.029303    
     16500   643.02881     -1778.6909      35.823857     -1742.8671     -7165.442       5220.8914      12.266855      21.246816      20.03169     
     17000   695.34973     -1782.1718      38.738714     -1743.4331     -9854.9706      5225.8793      12.27076       21.25358       20.038067    
     17500   618.44626     -1778.0356      34.454335     -1743.5813     -8101.5443      5224.2184      12.26946       21.251328      20.035944    
     18000   672.92374     -1777.2549      37.489337     -1739.7655     -5993.9843      5224.4413      12.269634      21.25163       20.036229    
     18500   675.45817     -1775.7733      37.630533     -1738.1428     -6221.0924      5227.7211      12.272201      21.256076      20.040421    
     19000   644.05209     -1777.337       35.880865     -1741.4562     -4447.901       5215.9789      12.263006      21.24015       20.025405    
     19500   647.43564     -1778.8189      36.069366     -1742.7495     -3331.6998      5209.777       12.258144      21.231728      20.017465    
     20000   665.9531      -1778.4632      37.100995     -1741.3622     -4562.175       5212.4908      12.260272      21.235414      20.02094     
Loop time of 216.469 on 8 procs for 20000 steps with 432 atoms

Performance: 15.965 ns/day, 1.503 hours/ns, 92.392 timesteps/s, 39.913 katom-step/s
89.0% CPU use with 1 MPI tasks x 8 OpenMP threads

MPI task timing breakdown:
Section |  min time  |  avg time  |  max time  |%varavg| %total
---------------------------------------------------------------
Pair    | 186.55     | 186.55     | 186.55     |   0.0 | 86.18
Neigh   | 0.019304   | 0.019304   | 0.019304   |   0.0 |  0.01
Comm    | 0.16786    | 0.16786    | 0.16786    |   0.0 |  0.08
Output  | 0.00243    | 0.00243    | 0.00243    |   0.0 |  0.00
Modify  | 29.692     | 29.692     | 29.692     |   0.0 | 13.72
Other   |            | 0.03545    |            |       |  0.02

Nlocal:            432 ave         432 max         432 min
Histogram: 1 0 0 0 0 0 0 0 0 0
Nghost:           2679 ave        2679 max        2679 min
Histogram: 1 0 0 0 0 0 0 0 0 0
Neighs:          37468 ave       37468 max       37468 min
Histogram: 1 0 0 0 0 0 0 0 0 0
FullNghs:        74936 ave       74936 max       74936 min
Histogram: 1 0 0 0 0 0 0 0 0 0

Total # of neighbors = 74936
Ave neighs/atom = 173.46296
Neighbor list builds = 23
Dangerous builds = 0
=== STAGE 3: NPT Production at 650 K ===
No /omp style for force computation currently active
Setting up Verlet run ...
  Unit style    : metal
  Current step  : 0
  Time step     : 0.001
Per MPI rank memory allocation (min/avg/max) = 18.89 | 18.89 | 18.89 Mbytes
   Step          Temp          PotEng         KinEng         TotEng         Press          Volume           Lx             Ly             Lz      
         0   665.9531      -1778.4632      37.100995     -1741.3622     -4562.175       5212.4908      12.260272      21.235414      20.02094     
       500   625.24269     -1777.1456      34.832972     -1742.3126     -1662.5967      5208.8801      12.25744       21.23051       20.016316    
      1000   635.1517      -1781.6972      35.385014     -1746.3122     -2568.7371      5200.0385      12.250501      21.21849       20.004985    
      1500   645.56499     -1779.6047      35.96515      -1743.6395     -3138.2241      5206.3799      12.255479      21.227112      20.013113    
      2000   616.71187     -1777.0394      34.35771      -1742.6817     -2216.922       5206.2135      12.255348      21.226886      20.0129      
      2500   654.13177     -1778.7449      36.442415     -1742.3025      4070.5801      5186.3619      12.239752      21.199872      19.987431    
      3000   687.22323     -1777.9825      38.285977     -1739.6965      2679.6302      5193.2441      12.245163      21.209245      19.996268    
      3500   691.60024     -1777.3495      38.529825     -1738.8197      3665.4381      5189.5528      12.242261      21.204219      19.991529    
      4000   639.73685     -1777.1928      35.640458     -1741.5523      8777.5844      5168.6396      12.225794      21.175697      19.964638    
      4500   634.53855     -1779.4553      35.350855     -1744.1044      8223.729       5171.0457      12.227691      21.178982      19.967736    
      5000   646.93563     -1780.1171      36.04151      -1744.0756      3929.8524      5178.6867      12.233711      21.189409      19.977566    
      5500   649.753       -1779.3791      36.198469     -1743.1807      4579.1123      5182.699       12.23687       21.19488       19.982724    
      6000   651.58253     -1778.5094      36.300394     -1742.209       4877.2467      5183.6076      12.237585      21.196118      19.983892    
      6500   675.92219     -1778.9999      37.656384     -1741.3435      3269.1899      5187.4898      12.240639      21.201409      19.98888     
      7000   658.34705     -1781.0274      36.677253     -1744.3501      1465.4312      5187.4033      12.240571      21.201291      19.988769    
      7500   624.76046     -1779.8875      34.806107     -1745.0814      466.01215      5188.5966      12.241509      21.202916      19.990301    
      8000   652.87204     -1779.2814      36.372234     -1742.9092     -2801.4275      5209.5715      12.257983      21.231449      20.017202    
      8500   654.49438     -1780.202       36.462617     -1743.7394     -3216.4827      5208.4021      12.257065      21.22986       20.015704    
      9000   620.05575     -1781.9084      34.544002     -1747.3644     -4029.1113      5198.6531      12.249413      21.216606      20.003208    
      9500   617.22102     -1782.6603      34.386076     -1748.2742     -323.54699      5191.4811      12.243777      21.206845      19.994005    
     10000   671.59972     -1784.1496      37.415574     -1746.7341     -3261.3441      5197.3729      12.248408      21.214864      20.001566    
     10500   653.45975     -1781.4288      36.404976     -1745.0238     -4715.5839      5207.2034      12.256125      21.228231      20.014168    
     11000   657.44123     -1778.5002      36.626789     -1741.8734     -1981.0361      5204.3945      12.253921      21.224414      20.010569    
     11500   663.79527     -1779.0921      36.98078      -1742.1113      2160.7538      5191.7995      12.244028      21.207278      19.994414    
     12000   650.36425     -1782.197       36.232522     -1745.9644      4380.1702      5174.5327      12.230439      21.183742      19.972223    
     12500   677.83883     -1781.6326      37.763162     -1743.8694      6530.2624      5165.748       12.223514      21.171747      19.960915    
     13000   624.98668     -1778.3639      34.818709     -1743.5452      8119.4077      5167.4473      12.224854      21.174069      19.963103    
     13500   663.51657     -1782.4153      36.965253     -1745.4501      7384.253       5165.5095      12.223326      21.171421      19.960608    
     14000   655.09405     -1781.6181      36.496025     -1745.1221      9073.2258      5165.006       12.222929      21.170734      19.959959    
     14500   652.64821     -1777.0221      36.359764     -1740.6624      4847.3337      5182.9406      12.23706       21.195209      19.983035    
     15000   613.6141      -1782.0613      34.18513      -1747.8762      5167.6236      5175.0524      12.230848      21.184451      19.972892    
     15500   626.12825     -1782.1606      34.882308     -1747.2782      2587.6171      5183.6094      12.237586      21.196121      19.983894    
     16000   620.51455     -1779.5384      34.569562     -1744.9688      264.6162       5189.5556      12.242264      21.204223      19.991533    
     16500   652.68382     -1783.0228      36.361748     -1746.661       1892.0932      5180.0431      12.234779      21.191259      19.97931     
     17000   605.26267     -1784.7185      33.719863     -1750.9987      5548.9224      5165.5414      12.223351      21.171465      19.960649    
     17500   640.16189     -1783.0563      35.664137     -1747.3922     -1695.6211      5190.3548      12.242892      21.205311      19.992559    
     18000   638.86564     -1780.2838      35.591922     -1744.6919      1151.7416      5188.9358      12.241776      21.203378      19.990737    
     18500   658.52764     -1781.4409      36.687314     -1744.7536     -533.72268      5190.4711      12.242983      21.205469      19.992708    
     19000   654.66828     -1783.835       36.472305     -1747.3627     -4087.5289      5199.4578      12.250045      21.217701      20.00424     
     19500   660.7784      -1783.3195      36.812707     -1746.5068     -5054.3993      5204.847       12.254276      21.225029      20.011149    
     20000   642.49357     -1779.7137      35.794038     -1743.9197     -3415.2106      5210.7061      12.258872      21.23299       20.018655    
     20500   650.48669     -1781.1969      36.239343     -1744.9575     -4239.6934      5204.1076      12.253696      21.224024      20.010201    
     21000   650.2637      -1782.8633      36.22692      -1746.6363     -2619.3649      5196.3073      12.24757       21.213414      20.000199    
     21500   662.92423     -1780.6283      36.932253     -1743.6961     -2028.4762      5198.7363      12.249478      21.216719      20.003315    
     22000   684.28235     -1780.3156      38.122138     -1742.1935     -5067.8701      5211.9115      12.259818      21.234627      20.020199    
     22500   669.90584     -1782.7686      37.321206     -1745.4474     -6856.4861      5214.2562      12.261656      21.237811      20.0232      
     23000   624.52619     -1782.7664      34.793055     -1747.9733     -12630.23       5228.8587      12.273091      21.257618      20.041874    
     23500   652.46611     -1782.2024      36.34962      -1745.8528     -10162.413      5222.7624      12.26832       21.249353      20.034082    
     24000   648.44224     -1780.7987      36.125445     -1744.6732     -3042.7553      5208.7336      12.257325      21.23031       20.016129    
     24500   624.12836     -1782.366       34.770891     -1747.5951     -1467.0678      5195.7106      12.247102      21.212602      19.999433    
     25000   591.90934     -1783.5108      32.975933     -1750.5348      3513.6031      5173.2505      12.229429      21.181992      19.970574    
     25500   676.32758     -1781.5661      37.678969     -1743.8871      657.16809      5185.4074      12.239001      21.198571      19.986205    
     26000   642.1481      -1780.7083      35.774791     -1744.9335      4553.5958      5176.3976      12.231908      21.186286      19.974622    
     26500   609.54375     -1785.6185      33.958366     -1751.6602      5192.5226      5163.7745      12.221957      21.169051      19.958373    
     27000   626.77554     -1782.1047      34.918369     -1747.1863      3729.3775      5180.3499      12.23502       21.191677      19.979705    
     27500   648.3371      -1780.7563      36.119588     -1744.6367      5263.094       5177.1992      12.23254       21.18738       19.975653    
     28000   652.87406     -1782.6555      36.372347     -1746.2832      7578.3409      5165.2884      12.223152      21.171119      19.960323    
     28500   709.66909     -1783.6684      39.536462     -1744.1319      11237.587      5151.9072      12.212587      21.152822      19.943071    
     29000   639.02125     -1777.4544      35.600591     -1741.8538      13541.395      5153.3004      12.213688      21.154728      19.944869    
     29500   663.89108     -1783.7094      36.986117     -1746.7233      7123.5556      5161.371       12.220061      21.165766      19.955276    
     30000   698.3751      -1785.7312      38.907261     -1746.8239      4866.1329      5172.3863      12.228748      21.180812      19.969461    
     30500   682.63393     -1783.9772      38.030303     -1745.9469     -723.53491      5188.8177      12.241683      21.203217      19.990585    
     31000   651.07113     -1779.1735      36.271903     -1742.9016      782.53549      5199.1326      12.24979       21.217258      20.003823    
     31500   635.73968     -1783.4918      35.417771     -1748.074      -446.4723       5185.9904      12.239459      21.199366      19.986954    
     32000   665.04321     -1782.142       37.050304     -1745.0917     -3086.0998      5195.4819      12.246922      21.212291      19.99914     
     32500   656.56443     -1781.7808      36.577942     -1745.2029      216.40913      5193.8112      12.245609      21.210017      19.996996    
     33000   696.4111      -1784.0923      38.797844     -1745.2945     -4478.0181      5203.5138      12.25323       21.223216      20.00944     
     33500   641.78309     -1781.2575      35.754456     -1745.503       1093.2869      5192.2216      12.24436       21.207853      19.994955    
     34000   669.25211     -1783.9505      37.284786     -1746.6657     -2874.9586      5196.131       12.247432      21.213174      19.999973    
     34500   622.01893     -1782.3666      34.653373     -1747.7132      1349.7364      5183.2982      12.237341      21.195697      19.983494    
     35000   663.76613     -1783.61        36.979156     -1746.6308      200.98575      5186.3037      12.239706      21.199793      19.987356    
     35500   664.62868     -1782.0883      37.02721      -1745.0611      1197.7743      5186.5631      12.23991       21.200146      19.987689    
     36000   717.44271     -1783.8677      39.969539     -1743.8981      2578.9263      5182.5789      12.236775      21.194716      19.98257     
     36500   651.57735     -1783.0289      36.300105     -1746.7288      7737.7508      5161.2552      12.219969      21.165608      19.955126    
     37000   707.68971     -1782.9172      39.426188     -1743.491       7170.6446      5164.6674      12.222662      21.170271      19.959523    
     37500   692.31673     -1779.5239      38.569742     -1740.9542      4426.9639      5180.8411      12.235407      21.192347      19.980336    
     38000   611.39138     -1782.4418      34.0613       -1748.3805      3485.3424      5174.3234      12.230274      21.183456      19.971954    
     38500   643.37443     -1783.3329      35.843111     -1747.4898      418.19232      5187.4755      12.240628      21.201389      19.988861    
     39000   731.27306     -1780.5671      40.740043     -1739.8271     -4022.8352      5208.9494      12.257495      21.230604      20.016405    
     39500   631.02767     -1781.144       35.15526      -1745.9887      1504.8531      5185.1504      12.238799      21.198221      19.985874    
     40000   628.96068     -1781.7705      35.040105     -1746.7304      554.97876      5186.8505      12.240136      21.200538      19.988058    
     40500   652.97654     -1782.5162      36.378056     -1746.1382     -2285.3023      5193.9182      12.245693      21.210163      19.997133    
     41000   628.48403     -1781.1584      35.013551     -1746.1449     -2020.6297      5197.0446      12.24815       21.214418      20.001145    
     41500   661.71464     -1783.591       36.864865     -1746.7261     -2286.3146      5196.8004      12.247958      21.214085      20.000831    
     42000   617.81604     -1784.9508      34.419225     -1750.5316     -754.90996      5188.2884      12.241267      21.202496      19.989905    
     42500   637.94852     -1780.8626      35.540828     -1745.3218     -2245.4208      5203.6975      12.253374      21.223466      20.009676    
     43000   652.18041     -1784.3369      36.333703     -1748.0032     -7082.2747      5205.9059      12.255107      21.226468      20.012506    
     43500   646.35987     -1784.9684      36.009434     -1748.959      -4089.8136      5195.6959      12.24709       21.212582      19.999414    
     44000   654.84327     -1782.6952      36.482053     -1746.2131     -5010.7307      5203.0197      12.252842      21.222544      20.008807    
     44500   617.64892     -1779.4117      34.409915     -1745.0018     -3520.9171      5209.5012      12.257928      21.231353      20.017112    
     45000   614.39417     -1782.5936      34.228589     -1748.365      -4759.064       5200.4848      12.250852      21.219097      20.005557    
     45500   609.02997     -1782.3264      33.929743     -1748.3967     -3030.7108      5197.8186      12.248758      21.215471      20.002138    
     46000   659.54012     -1780.0856      36.743721     -1743.3419     -4025.3912      5209.1798      12.257675      21.230917      20.0167      
     46500   687.60679     -1780.6823      38.307346     -1742.375      -5204.8866      5214.0161      12.261468      21.237485      20.022893    
     47000   633.82205     -1780.6951      35.310938     -1745.3841     -9268.8696      5226.1528      12.270974      21.25395       20.038417    
     47500   635.87753     -1782.8045      35.425451     -1747.379      -10013.83       5225.2706      12.270284      21.252754      20.037289    
     48000   680.56374     -1781.3667      37.91497      -1743.4517     -4816.5894      5208.4976      12.25714       21.22999       20.015826    
     48500   666.7025      -1779.9432      37.142745     -1742.8005     -2882.6181      5206.2671      12.25539       21.226959      20.012969    
     49000   654.98938     -1783.4459      36.490194     -1746.9557     -1338.1234      5191.7405      12.243981      21.207198      19.994338    
     49500   674.36141     -1783.8264      37.569431     -1746.2569      1168.3087      5183.9514      12.237855      21.196587      19.984334    
     50000   681.08267     -1781.8046      37.94388      -1743.8608      376.72485      5190.8912      12.243314      21.206041      19.993248    
Loop time of 558.094 on 8 procs for 50000 steps with 432 atoms

Performance: 7.741 ns/day, 3.101 hours/ns, 89.591 timesteps/s, 38.703 katom-step/s
89.0% CPU use with 1 MPI tasks x 8 OpenMP threads

MPI task timing breakdown:
Section |  min time  |  avg time  |  max time  |%varavg| %total
---------------------------------------------------------------
Pair    | 481.26     | 481.26     | 481.26     |   0.0 | 86.23
Neigh   | 0.005201   | 0.005201   | 0.005201   |   0.0 |  0.00
Comm    | 0.4342     | 0.4342     | 0.4342     |   0.0 |  0.08
Output  | 0.006313   | 0.006313   | 0.006313   |   0.0 |  0.00
Modify  | 76.303     | 76.303     | 76.303     |   0.0 | 13.67
Other   |            | 0.08572    |            |       |  0.02

Nlocal:            432 ave         432 max         432 min
Histogram: 1 0 0 0 0 0 0 0 0 0
Nghost:           2691 ave        2691 max        2691 min
Histogram: 1 0 0 0 0 0 0 0 0 0
Neighs:          37644 ave       37644 max       37644 min
Histogram: 1 0 0 0 0 0 0 0 0 0
FullNghs:        75288 ave       75288 max       75288 min
Histogram: 1 0 0 0 0 0 0 0 0 0

Total # of neighbors = 75288
Ave neighs/atom = 174.27778
Neighbor list builds = 7
Dangerous builds = 0

=== FINAL RESULTS: DHCP at 650 K ===
Atoms: 432 | PE/atom: -4.1242453243862 eV/atom
WARNING: Detected non-ASCII characters in input. Will try to continue by replacing with ASCII equivalents where known. (src/input.cpp:479)
Volume: 5190.89121132607 …³ | Area: 259.632217780121 ²
==========================================
DHCP 650 432 -4.1242453243862 5190.89121132607 12.2433137181764 21.206041416277 19.9932475857913 259.632217780121
Simulation complete!
Total wall time: 0:12:54
