LAMMPS (10 Sep 2025)
  using 8 OpenMP thread(s) per MPI task
Loaded 1 plugins from C:\Users\harsh\Downloads\LAMMPS 64-bit 10Sep2025\plugins
using multi-threaded neighbor list subroutines
Reading data file ...
  orthogonal box = (0 0 0) to (21.6 21.6 21.6)
  1 by 1 by 1 MPI processor grid
  reading atoms ...
  864 atoms
  read_data CPU = 0.004 seconds
=== STAGE 1: Energy Minimization ===
Switching to 'neigh_modify every 1 delay 0 check yes' setting during minimization
No /omp style for force computation currently active
Neighbor list info ...
  update: every = 1 steps, delay = 0 steps, check = yes
  max neighbors/atom: 4000, page size: 100000
  master list distance cutoff = 8
  ghost atom cutoff = 8
  binsize = 4, bins = 6 6 6
  2 neighbor lists, perpetual/occasional/extra = 2 0 0
  (1) pair meam, perpetual
      attributes: full, newton on, omp
      pair build: full/bin/atomonly/omp
      stencil: full/bin/3d
      bin: standard
  (2) pair meam, perpetual, half/full from (1)
      attributes: half, newton on, omp
      pair build: halffull/newton/omp
      stencil: none
      bin: none
Setting up cg style minimization ...
  Unit style    : metal
  Current step  : 0
Per MPI rank memory allocation (min/avg/max) = 21.26 | 21.26 | 21.26 Mbytes
   Step          Temp          PotEng         KinEng         TotEng         Press          Volume           Lx             Ly             Lz      
         0   0             -3749.0146      0             -3749.0146     -30424.241      10077.696      21.6           21.6           21.6         
         1   0             -3749.0146      0             -3749.0146     -30424.241      10077.696      21.6           21.6           21.6         
Loop time of 0.095852 on 8 procs for 1 steps with 864 atoms

97.8% CPU use with 1 MPI tasks x 8 OpenMP threads

Minimization stats:
  Stopping criterion = energy tolerance
  Energy initial, next-to-last, final = 
     -3749.01464010513  -3749.01464010513  -3749.01464010513
  Force two-norm initial, final = 2.3494804e-13 2.374361e-13
  Force max component initial, final = 8.4752694e-15 8.4591842e-15
  Final line search alpha, max atom move = 1 8.4591842e-15
  Iterations, force evaluations = 1 2

MPI task timing breakdown:
Section |  min time  |  avg time  |  max time  |%varavg| %total
---------------------------------------------------------------
Pair    | 0.095089   | 0.095089   | 0.095089   |   0.0 | 99.20
Neigh   | 0          | 0          | 0          |   0.0 |  0.00
Comm    | 7.4e-05    | 7.4e-05    | 7.4e-05    |   0.0 |  0.08
Output  | 0          | 0          | 0          |   0.0 |  0.00
Modify  | 0.000518   | 0.000518   | 0.000518   |   0.0 |  0.54
Other   |            | 0.000171   |            |       |  0.18

Nlocal:            864 ave         864 max         864 min
Histogram: 1 0 0 0 0 0 0 0 0 0
Nghost:           3767 ave        3767 max        3767 min
Histogram: 1 0 0 0 0 0 0 0 0 0
Neighs:          76032 ave       76032 max       76032 min
Histogram: 1 0 0 0 0 0 0 0 0 0
FullNghs:       152064 ave      152064 max      152064 min
Histogram: 1 0 0 0 0 0 0 0 0 0

Total # of neighbors = 152064
Ave neighs/atom = 176
Neighbor list builds = 0
Dangerous builds = 0
Minimized PE/atom: -4.33913731493649 eV/atom
=== STAGE 2: NPT Equilibration at 650 K ===
No /omp style for force computation currently active
Setting up Verlet run ...
  Unit style    : metal
  Current step  : 0
  Time step     : 0.002
Per MPI rank memory allocation (min/avg/max) = 20.14 | 20.14 | 20.14 Mbytes
   Step          Temp          PotEng         KinEng         TotEng         Press          Volume           Lx             Ly             Lz      
         0   650           -3749.0146      72.508478     -3676.5062     -22739.192      10077.696      21.6           21.6           21.6         
       500   618.56948     -3683.7139      69.002356     -3614.7115     -10677.259      10141.96       21.645816      21.645816      21.645816    
      1000   598.95581     -3679.255       66.814422     -3612.4406     -5246.2371      10117.859      21.628656      21.628656      21.628656    
      1500   644.03311     -3677.7105      71.842862     -3605.8676     -4248.6114      10119.751      21.630004      21.630004      21.630004    
      2000   670.71108     -3676.9735      74.81883      -3602.1547     -4429.8272      10123.497      21.632673      21.632673      21.632673    
      2500   670.95616     -3679.7425      74.84617      -3604.8963     -4285.1889      10115.509      21.626981      21.626981      21.626981    
      3000   618.37333     -3678.0912      68.980476     -3609.1107     -3449.1813      10109.168      21.622462      21.622462      21.622462    
      3500   630.44074     -3681.0526      70.326613     -3610.7259     -3097.1513      10102.738      21.617876      21.617876      21.617876    
      4000   635.68229     -3678.2169      70.911316     -3607.3056     -4269.1097      10117.901      21.628686      21.628686      21.628686    
      4500   655.11844     -3678.7598      73.079448     -3605.6804     -6427.1311      10132.007      21.638733      21.638733      21.638733    
      5000   674.52521     -3679.329       75.244303     -3604.0847     -8774.7831      10145.617      21.648417      21.648417      21.648417    
      5500   651.42068     -3679.7919      72.666958     -3607.125      -7659.4793      10135.756      21.641401      21.641401      21.641401    
      6000   595.22559     -3675.7327      66.39831      -3609.3344     -3050.6575      10112.637      21.624935      21.624935      21.624935    
      6500   656.51715     -3679.1113      73.235476     -3605.8758     -2501.1995      10105.13       21.619582      21.619582      21.619582    
      7000   654.77201     -3673.6616      73.040803     -3600.6208     -1748.6823      10111.702      21.624268      21.624268      21.624268    
      7500   677.64595     -3679.5249      75.592426     -3603.9325     -2022.9297      10101.398      21.616921      21.616921      21.616921    
      8000   634.8221      -3678.4574      70.815361     -3607.6421     -1358.2869      10098.113      21.614577      21.614577      21.614577    
      8500   643.22119     -3680.6198      71.752292     -3608.8675     -1555.1461      10096.19       21.613205      21.613205      21.613205    
      9000   631.79316     -3679.5284      70.477478     -3609.0509     -2295.2018      10101.305      21.616854      21.616854      21.616854    
      9500   631.59532     -3676.2851      70.455409     -3605.8297     -3072.1692      10111.592      21.62419       21.62419       21.62419     
     10000   676.31057     -3680.9896      75.443462     -3605.5462     -4985.422       10117.444      21.62836       21.62836       21.62836     
     10500   625.03276     -3677.9831      69.723346     -3608.2598     -3727.3219      10114.144      21.626009      21.626009      21.626009    
     11000   636.6756      -3681.3725      71.022121     -3610.3504     -2824.2724      10101.378      21.616906      21.616906      21.616906    
     11500   635.85946     -3681.0994      70.931079     -3610.1683     -2013.7869      10095.496      21.61271       21.61271       21.61271     
     12000   646.19174     -3678.2122      72.083662     -3606.1286     -825.41968      10095.001      21.612357      21.612357      21.612357    
     12500   645.98455     -3678.9005      72.060548     -3606.84       -116.26919      10092.836      21.610812      21.610812      21.610812    
     13000   632.38787     -3681.0808      70.543819     -3610.537      -91.266826      10082.596      21.603501      21.603501      21.603501    
     13500   615.49836     -3677.8531      68.659769     -3609.1933     -79.074293      10087.83       21.607237      21.607237      21.607237    
     14000   647.53374     -3676.6913      72.233364     -3604.458       562.84538      10089.037      21.608099      21.608099      21.608099    
     14500   647.35412     -3676.2012      72.213327     -3603.9878      378.34982      10093.747      21.611461      21.611461      21.611461    
     15000   667.76563     -3678.4222      74.490261     -3603.9319      630.81068      10089.496      21.608427      21.608427      21.608427    
     15500   641.68633     -3678.9158      71.581076     -3607.3347      1210.4269      10079.656      21.6014        21.6014        21.6014      
     16000   655.26709     -3679.4721      73.096031     -3606.3761      1711.9602      10077.774      21.600056      21.600056      21.600056    
     16500   669.6942      -3678.3099      74.705396     -3603.6045      1929.9976      10079.407      21.601222      21.601222      21.601222    
     17000   632.85625     -3673.4666      70.596067     -3602.8705      2567.8721      10082.375      21.603343      21.603343      21.603343    
     17500   674.10785     -3677.1641      75.197745     -3601.9663      1383.3703      10086.283      21.606133      21.606133      21.606133    
     18000   637.62808     -3677.9952      71.128372     -3606.8668      2032.9467      10076.628      21.599237      21.599237      21.599237    
     18500   621.2088      -3680.6244      69.296776     -3611.3276      1960.6338      10069.085      21.593846      21.593846      21.593846    
     19000   631.29977     -3680.7615      70.42244      -3610.3391      486.47525      10077.82       21.600089      21.600089      21.600089    
     19500   655.93111     -3678.7375      73.170102     -3605.5674      225.95244      10087.777      21.6072        21.6072        21.6072      
     20000   663.54977     -3676.9969      74.019976     -3602.9769     -345.17968      10095.304      21.612573      21.612573      21.612573    
Loop time of 970.434 on 8 procs for 20000 steps with 864 atoms

Performance: 3.561 ns/day, 6.739 hours/ns, 20.609 timesteps/s, 17.806 katom-step/s
92.2% CPU use with 1 MPI tasks x 8 OpenMP threads

MPI task timing breakdown:
Section |  min time  |  avg time  |  max time  |%varavg| %total
---------------------------------------------------------------
Pair    | 930.39     | 930.39     | 930.39     |   0.0 | 95.87
Neigh   | 0          | 0          | 0          |   0.0 |  0.00
Comm    | 0.75365    | 0.75365    | 0.75365    |   0.0 |  0.08
Output  | 0.005207   | 0.005207   | 0.005207   |   0.0 |  0.00
Modify  | 39.179     | 39.179     | 39.179     |   0.0 |  4.04
Other   |            | 0.1054     |            |       |  0.01

Nlocal:            864 ave         864 max         864 min
Histogram: 1 0 0 0 0 0 0 0 0 0
Nghost:           3767 ave        3767 max        3767 min
Histogram: 1 0 0 0 0 0 0 0 0 0
Neighs:          76032 ave       76032 max       76032 min
Histogram: 1 0 0 0 0 0 0 0 0 0
FullNghs:       152064 ave      152064 max      152064 min
Histogram: 1 0 0 0 0 0 0 0 0 0

Total # of neighbors = 152064
Ave neighs/atom = 176
Neighbor list builds = 0
Dangerous builds = 0
=== STAGE 3: NPT Production at 650 K ===
No /omp style for force computation currently active
Setting up Verlet run ...
  Unit style    : metal
  Current step  : 0
  Time step     : 0.001
Per MPI rank memory allocation (min/avg/max) = 20.21 | 20.21 | 20.21 Mbytes
   Step          Temp          PotEng         KinEng         TotEng         Press          Volume           Lx             Ly             Lz      
         0   663.54977     -3676.9969      74.019976     -3602.9769     -345.17968      10095.304      21.612573      21.612573      21.612573    
       500   669.36307     -3680.7907      74.668458     -3606.1222     -261.79076      10087.063      21.60669       21.60669       21.60669     
      1000   640.18722     -3679.8416      71.413848     -3608.4278     -156.91572      10086.624      21.606377      21.606377      21.606377    
      1500   606.86932     -3681.1807      67.697186     -3613.4835      411.02365      10078.317      21.600443      21.600443      21.600443    
      2000   662.71559     -3677.8861      73.926921     -3603.9592     -1195.3037      10100.935      21.61659       21.61659       21.61659     
      2500   670.27093     -3679.164       74.769731     -3604.3943     -2284.4072      10102.173      21.617473      21.617473      21.617473    
      3000   616.67223     -3681.7506      68.790715     -3612.9599     -1694.6706      10090.828      21.609378      21.609378      21.609378    
      3500   638.11191     -3679.6524      71.182344     -3608.47       -3510.5354      10108.777      21.622183      21.622183      21.622183    
      4000   640.77558     -3678.24        71.479481     -3606.7605     -4076.4132      10111.875      21.624392      21.624392      21.624392    
      4500   663.95017     -3677.8344      74.064641     -3603.7698     -5061.4628      10124.1        21.633103      21.633103      21.633103    
      5000   646.66439     -3677.2412      72.136386     -3605.1048     -5816.4591      10129.38       21.636863      21.636863      21.636863    
      5500   633.73839     -3679.0234      70.694471     -3608.329      -7180.5224      10130.224      21.637464      21.637464      21.637464    
      6000   613.28632     -3681.941       68.413012     -3613.528      -6891.3553      10121.265      21.631083      21.631083      21.631083    
      6500   661.86259     -3677.1         73.831769     -3603.2682     -5398.1466      10128.681      21.636365      21.636365      21.636365    
      7000   647.81987     -3678.385       72.265282     -3606.1198     -3347.7889      10109.754      21.622879      21.622879      21.622879    
      7500   629.28283     -3681.5384      70.197447     -3611.3409     -2250.0673      10094.538      21.612026      21.612026      21.612026    
      8000   649.37815     -3680.3819      72.43911      -3607.9427     -2640.8924      10102.218      21.617506      21.617506      21.617506    
      8500   634.47364     -3674.4863      70.77649      -3603.7099     -2057.5443      10111.928      21.624429      21.624429      21.624429    
      9000   655.12097     -3679.0474      73.07973      -3605.9677     -2978.5829      10108.132      21.621723      21.621723      21.621723    
      9500   616.33611     -3681.1629      68.753221     -3612.4097     -3145.1253      10102.977      21.618047      21.618047      21.618047    
     10000   650.36643     -3680.4387      72.549355     -3607.8893     -6258.7869      10125.569      21.634149      21.634149      21.634149    
     10500   659.5906      -3678.1604      73.578324     -3604.5821     -8060.5073      10143.697      21.647052      21.647052      21.647052    
     11000   666.97961     -3677.7826      74.402579     -3603.3801     -9832.1958      10153.852      21.654273      21.654273      21.654273    
     11500   643.65613     -3678.6411      71.800811     -3606.8403     -8354.6122      10141.75       21.645667      21.645667      21.645667    
     12000   646.37953     -3678.5108      72.10461      -3606.4062     -7159.8047      10134.69       21.640642      21.640642      21.640642    
     12500   660.70677     -3677.4366      73.702835     -3603.7338     -6543.4443      10135.073      21.640916      21.640916      21.640916    
     13000   638.49354     -3678.2887      71.224916     -3607.0637     -5386.7197      10122.725      21.632123      21.632123      21.632123    
     13500   600.67262     -3678.3443      67.005935     -3611.3383     -3979.4619      10108.787      21.62219       21.62219       21.62219     
     14000   640.75323     -3681.989       71.476988     -3610.512      -4436.7557      10108.77       21.622178      21.622178      21.622178    
     14500   638.39725     -3678.1501      71.214174     -3606.9359     -3405.1122      10112.131      21.624574      21.624574      21.624574    
     15000   660.0837      -3677.0263      73.63333      -3603.393      -3602.575       10117.688      21.628535      21.628535      21.628535    
     15500   666.30881     -3680.6463      74.327751     -3606.3186     -3344.6047      10108.071      21.621679      21.621679      21.621679    
     16000   640.99574     -3680.881       71.50404      -3609.3769     -2898.6797      10102.428      21.617655      21.617655      21.617655    
     16500   637.13971     -3682.3127      71.073893     -3611.2388     -2294.3308      10093.545      21.611318      21.611318      21.611318    
     17000   652.52299     -3680.4334      72.789922     -3607.6435     -2565.9653      10100.551      21.616316      21.616316      21.616316    
     17500   655.18029     -3676.9437      73.086347     -3603.8574     -1194.339       10100.832      21.616517      21.616517      21.616517    
     18000   668.60521     -3677.0146      74.583917     -3602.4307     -1502.1364      10103.95       21.618741      21.618741      21.618741    
     18500   652.24256     -3678.6916      72.75864      -3605.933      -1398.8917      10098.417      21.614794      21.614794      21.614794    
     19000   624.39347     -3677.184       69.652031     -3607.5319     -2634.778       10108.016      21.62164       21.62164       21.62164     
     19500   670.09039     -3678.3003      74.749591     -3603.5508     -4648.6727      10120.7        21.630681      21.630681      21.630681    
     20000   690.65845     -3678.5997      77.043989     -3601.5557     -5575.5085      10127.318      21.635395      21.635395      21.635395    
     20500   655.43595     -3678.6719      73.114866     -3605.557      -4407.5952      10114.565      21.626309      21.626309      21.626309    
     21000   642.94541     -3678.9477      71.721528     -3607.2262     -4308.6684      10113.705      21.625696      21.625696      21.625696    
     21500   621.82377     -3679.0509      69.365377     -3609.6855     -3427.7604      10107.282      21.621117      21.621117      21.621117    
     22000   650.50263     -3680.294       72.564548     -3607.7294     -2944.0698      10103.975      21.618759      21.618759      21.618759    
     22500   663.51619     -3678.7092      74.01623      -3604.6929     -941.95844      10096.536      21.613452      21.613452      21.613452    
     23000   632.72983     -3676.1412      70.581965     -3605.5592     -113.37008      10093.929      21.611591      21.611591      21.611591    
     23500   629.0522      -3679.1903      70.17172      -3609.0186     -217.85477      10086.658      21.606401      21.606401      21.606401    
     24000   642.13019     -3682.3568      71.630589     -3610.7262      218.84811      10080.27       21.601839      21.601839      21.601839    
     24500   639.85593     -3680.4663      71.376892     -3609.0894     -47.076067      10084.832      21.605097      21.605097      21.605097    
     25000   638.67663     -3676.8822      71.245339     -3605.6369      171.80014      10088.923      21.608018      21.608018      21.608018    
     25500   635.50413     -3678.7548      70.891442     -3607.8634     -521.54902      10088.572      21.607768      21.607768      21.607768    
     26000   641.79142     -3682.2245      71.592799     -3610.6317     -438.56907      10081.66       21.602832      21.602832      21.602832    
     26500   633.06882     -3678.9478      70.61978      -3608.328      -862.54572      10089.899      21.608715      21.608715      21.608715    
     27000   651.90292     -3677.5796      72.720752     -3604.8589     -1473.3597      10098.903      21.615141      21.615141      21.615141    
     27500   676.77359     -3680.635       75.495112     -3605.1399     -2365.4727      10100.215      21.616077      21.616077      21.616077    
     28000   642.26072     -3679.5963      71.64515      -3607.9512     -1738.7489      10096.419      21.613369      21.613369      21.613369    
     28500   636.41264     -3679.3928      70.992787     -3608.4        -1820.8585      10095.897      21.612996      21.612996      21.612996    
     29000   669.20773     -3674.9039      74.651129     -3600.2528     -2549.8601      10115.064      21.626664      21.626664      21.626664    
     29500   693.54731     -3679.1642      77.366247     -3601.798      -4273.4367      10118.723      21.629272      21.629272      21.629272    
     30000   658.85617     -3679.023       73.496397     -3605.5266     -4281.3168      10115.624      21.627064      21.627064      21.627064    
     30500   643.79254     -3679.6858      71.816027     -3607.8698     -5873.2313      10122.462      21.631936      21.631936      21.631936    
     31000   638.78266     -3679.218       71.257167     -3607.9608     -6201.6664      10125.72       21.634256      21.634256      21.634256    
     31500   652.18502     -3676.8503      72.752221     -3604.0981     -6565.3818      10132.129      21.63882       21.63882       21.63882     
     32000   647.26561     -3678.4877      72.203453     -3606.2842     -5674.0365      10124.156      21.633143      21.633143      21.633143    
     32500   643.88309     -3681.2906      71.826128     -3609.4644     -5058.1929      10113.901      21.625836      21.625836      21.625836    
     33000   634.1806      -3676.6748      70.7438       -3605.931      -3861.8981      10116.564      21.627734      21.627734      21.627734    
     33500   669.47018     -3679.988       74.680406     -3605.3076     -4226.8389      10115.052      21.626656      21.626656      21.626656    
     34000   644.05942     -3680.4667      71.845797     -3608.6209     -3781.9939      10107.708      21.621421      21.621421      21.621421    
     34500   597.82574     -3676.2961      66.688361     -3609.6077     -1903.6873      10100.726      21.616441      21.616441      21.616441    
     35000   658.20691     -3678.9267      73.423972     -3605.5027     -1645.478       10098.928      21.615158      21.615158      21.615158    
     35500   650.46968     -3677.2399      72.560872     -3604.6791     -1186.8943      10100.023      21.61594       21.61594       21.61594     
     36000   638.48948     -3676.3078      71.224462     -3605.0834     -939.2969       10097.681      21.614269      21.614269      21.614269    
     36500   629.87608     -3677.802       70.263625     -3607.5384     -282.37467      10090.009      21.608794      21.608794      21.608794    
     37000   664.06582     -3682.4437      74.077542     -3608.3662     -1284.1635      10086.787      21.606493      21.606493      21.606493    
     37500   623.51851     -3677.3304      69.554428     -3607.7759     -292.90788      10092.31       21.610436      21.610436      21.610436    
     38000   650.76899     -3677.8926      72.59426      -3605.2983     -244.16         10093.544      21.611317      21.611317      21.611317    
     38500   669.48065     -3677.853       74.681574     -3603.1715     -369.40944      10093.371      21.611193      21.611193      21.611193    
     39000   651.9035      -3678.965       72.720816     -3606.2442      923.34084      10083.369      21.604053      21.604053      21.604053    
     39500   629.60363     -3679.7135      70.233233     -3609.4803      1733.1486      10073.952      21.597325      21.597325      21.597325    
     40000   637.12503     -3677.8167      71.072256     -3606.7445      2558.0049      10076.573      21.599197      21.599197      21.599197    
     40500   656.70592     -3676.5616      73.256533     -3603.3051      2400.4864      10078.837      21.600815      21.600815      21.600815    
     41000   663.84817     -3675.3371      74.053262     -3601.2839      2105.268       10083.503      21.604148      21.604148      21.604148    
     41500   647.80787     -3673.684       72.263943     -3601.42        4036.4278      10075.888      21.598708      21.598708      21.598708    
     42000   663.86743     -3680.9323      74.055411     -3606.8769      3677.4914      10062.983      21.589483      21.589483      21.589483    
     42500   621.25265     -3678.8105      69.301669     -3609.5088      4552.3568      10058.247      21.586096      21.586096      21.586096    
     43000   645.722       -3677.947       72.031261     -3605.9158      2594.4356      10072.076      21.595984      21.595984      21.595984    
     43500   636.23266     -3676.9879      70.972711     -3606.0152      1992.0378      10078.181      21.600346      21.600346      21.600346    
     44000   642.26099     -3680.9554      71.64518      -3609.3102      1375.0438      10073.881      21.597274      21.597274      21.597274    
     44500   609.60583     -3678.0581      68.002448     -3610.0557      2347.5045      10071.291      21.595423      21.595423      21.595423    
     45000   662.14065     -3679.8998      73.862787     -3606.037       1286.9438      10077.54       21.599889      21.599889      21.599889    
     45500   680.25399     -3680.6437      75.883356     -3604.7603      1124.4528      10077.369      21.599766      21.599766      21.599766    
     46000   646.20685     -3679.6429      72.085347     -3607.5576      2554.2773      10067.925      21.593017      21.593017      21.593017    
     46500   657.38229     -3680.6557      73.331984     -3607.3237      5518.7628      10051.531      21.581291      21.581291      21.581291    
     47000   646.09461     -3679.7484      72.072827     -3607.6756      6962.8859      10043.722      21.5757        21.5757        21.5757      
     47500   627.2273      -3674.1452      69.96815      -3604.1771      8459.8713      10044.617      21.576341      21.576341      21.576341    
     48000   635.45001     -3680.9876      70.885405     -3610.1022      6464.3989      10043.028      21.575203      21.575203      21.575203    
     48500   643.1209      -3680.9155      71.741105     -3609.1744      5401.268       10051.569      21.581318      21.581318      21.581318    
     49000   633.61567     -3673.5515      70.680782     -3602.8707      5562.5501      10066.596      21.592067      21.592067      21.592067    
     49500   656.96089     -3676.0081      73.284977     -3602.7231      3738.0611      10069.05       21.593821      21.593821      21.593821    
     50000   664.3746      -3678.4204      74.111987     -3604.3084      3776.215       10066.205      21.591787      21.591787      21.591787    
Loop time of 2334.27 on 8 procs for 50000 steps with 864 atoms

Performance: 1.851 ns/day, 12.968 hours/ns, 21.420 timesteps/s, 18.507 katom-step/s
94.2% CPU use with 1 MPI tasks x 8 OpenMP threads

MPI task timing breakdown:
Section |  min time  |  avg time  |  max time  |%varavg| %total
---------------------------------------------------------------
Pair    | 2229.1     | 2229.1     | 2229.1     |   0.0 | 95.50
Neigh   | 0          | 0          | 0          |   0.0 |  0.00
Comm    | 1.8455     | 1.8455     | 1.8455     |   0.0 |  0.08
Output  | 0.011488   | 0.011488   | 0.011488   |   0.0 |  0.00
Modify  | 102.99     | 102.99     | 102.99     |   0.0 |  4.41
Other   |            | 0.2909     |            |       |  0.01

Nlocal:            864 ave         864 max         864 min
Histogram: 1 0 0 0 0 0 0 0 0 0
Nghost:           3767 ave        3767 max        3767 min
Histogram: 1 0 0 0 0 0 0 0 0 0
Neighs:          79404 ave       79404 max       79404 min
Histogram: 1 0 0 0 0 0 0 0 0 0
FullNghs:       158808 ave      158808 max      158808 min
Histogram: 1 0 0 0 0 0 0 0 0 0

Total # of neighbors = 158808
Ave neighs/atom = 183.80556
Neighbor list builds = 0
Dangerous builds = 0

=== FINAL RESULTS: FCC at 650 K ===
Atoms: 864 | PE/atom: -4.25796263464987 eV/atom
WARNING: Detected non-ASCII characters in input. Will try to continue by replacing with ASCII equivalents where known. (src/input.cpp:479)
Volume: 10066.2045374793 …³ | Area: 466.20525779151 ²
==========================================
FCC 650 864 -4.25796263464987 10066.2045374793 21.5917868133119 21.5917868133119 21.5917868133119 466.20525779151
Simulation complete!
Total wall time: 0:55:04
