# DHCP structure - OPTIMIZED (smaller supercell)
# Composition: {'Al': 0.0, 'Fe': 1.0, 'Ni': 0.0}
# Generated for Assignment 2 - MM309 (Optimized)

432 atoms
3 atom types

0.0 15.27350647 xlo xhi
0.0 26.45448922 ylo yhi
0.0 24.94153163 zlo zhi

Masses

1 26.9815  # Al
2 55.8450  # Fe
3 58.6934  # Ni

Atoms # atomic

1 2 0.00000000 0.00000000 0.00000000
2 2 0.00000000 4.40908154 0.00000000
3 2 0.00000000 8.81816307 0.00000000
4 2 0.00000000 13.22724461 0.00000000
5 2 0.00000000 17.63632615 0.00000000
6 2 0.00000000 22.04540769 0.00000000
7 2 2.54558441 0.00000000 0.00000000
8 2 2.54558441 4.40908154 0.00000000
9 2 2.54558441 8.81816307 0.00000000
10 2 2.54558441 13.22724461 0.00000000
11 2 2.54558441 17.63632615 0.00000000
12 2 2.54558441 22.04540769 0.00000000
13 2 5.09116882 0.00000000 0.00000000
14 2 5.09116882 4.40908154 0.00000000
15 2 5.09116882 8.81816307 0.00000000
16 2 5.09116882 13.22724461 0.00000000
17 2 5.09116882 17.63632615 0.00000000
18 2 5.09116882 22.04540769 0.00000000
19 2 7.63675324 0.00000000 0.00000000
20 2 7.63675324 4.40908154 0.00000000
21 2 7.63675324 8.81816307 0.00000000
22 2 7.63675324 13.22724461 0.00000000
23 2 7.63675324 17.63632615 0.00000000
24 2 7.63675324 22.04540769 0.00000000
25 2 10.18233765 0.00000000 0.00000000
26 2 10.18233765 4.40908154 0.00000000
27 2 10.18233765 8.81816307 0.00000000
28 2 10.18233765 13.22724461 0.00000000
29 2 10.18233765 17.63632615 0.00000000
30 2 10.18233765 22.04540769 0.00000000
31 2 12.72792206 0.00000000 0.00000000
32 2 12.72792206 4.40908154 0.00000000
33 2 12.72792206 8.81816307 0.00000000
34 2 12.72792206 13.22724461 0.00000000
35 2 12.72792206 17.63632615 0.00000000
36 2 12.72792206 22.04540769 0.00000000
37 2 1.27279221 2.20454077 2.07846097
38 2 1.27279221 6.61362231 2.07846097
39 2 1.27279221 11.02270384 2.07846097
40 2 1.27279221 15.43178538 2.07846097
41 2 1.27279221 19.84086692 2.07846097
42 2 1.27279221 24.24994845 2.07846097
43 2 3.81837662 2.20454077 2.07846097
44 2 3.81837662 6.61362231 2.07846097
45 2 3.81837662 11.02270384 2.07846097
46 2 3.81837662 15.43178538 2.07846097
47 2 3.81837662 19.84086692 2.07846097
48 2 3.81837662 24.24994845 2.07846097
49 2 6.36396103 2.20454077 2.07846097
50 2 6.36396103 6.61362231 2.07846097
51 2 6.36396103 11.02270384 2.07846097
52 2 6.36396103 15.43178538 2.07846097
53 2 6.36396103 19.84086692 2.07846097
54 2 6.36396103 24.24994845 2.07846097
55 2 8.90954544 2.20454077 2.07846097
56 2 8.90954544 6.61362231 2.07846097
57 2 8.90954544 11.02270384 2.07846097
58 2 8.90954544 15.43178538 2.07846097
59 2 8.90954544 19.84086692 2.07846097
60 2 8.90954544 24.24994845 2.07846097
61 2 11.45512986 2.20454077 2.07846097
62 2 11.45512986 6.61362231 2.07846097
63 2 11.45512986 11.02270384 2.07846097
64 2 11.45512986 15.43178538 2.07846097
65 2 11.45512986 19.84086692 2.07846097
66 2 11.45512986 24.24994845 2.07846097
67 2 14.00071427 2.20454077 2.07846097
68 2 14.00071427 6.61362231 2.07846097
69 2 14.00071427 11.02270384 2.07846097
70 2 14.00071427 15.43178538 2.07846097
71 2 14.00071427 19.84086692 2.07846097
72 2 14.00071427 24.24994845 2.07846097
73 2 0.00000000 0.00000000 4.15692194
74 2 0.00000000 4.40908154 4.15692194
75 2 0.00000000 8.81816307 4.15692194
76 2 0.00000000 13.22724461 4.15692194
77 2 0.00000000 17.63632615 4.15692194
78 2 0.00000000 22.04540769 4.15692194
79 2 2.54558441 0.00000000 4.15692194
80 2 2.54558441 4.40908154 4.15692194
81 2 2.54558441 8.81816307 4.15692194
82 2 2.54558441 13.22724461 4.15692194
83 2 2.54558441 17.63632615 4.15692194
84 2 2.54558441 22.04540769 4.15692194
85 2 5.09116882 0.00000000 4.15692194
86 2 5.09116882 4.40908154 4.15692194
87 2 5.09116882 8.81816307 4.15692194
88 2 5.09116882 13.22724461 4.15692194
89 2 5.09116882 17.63632615 4.15692194
90 2 5.09116882 22.04540769 4.15692194
91 2 7.63675324 0.00000000 4.15692194
92 2 7.63675324 4.40908154 4.15692194
93 2 7.63675324 8.81816307 4.15692194
94 2 7.63675324 13.22724461 4.15692194
95 2 7.63675324 17.63632615 4.15692194
96 2 7.63675324 22.04540769 4.15692194
97 2 10.18233765 0.00000000 4.15692194
98 2 10.18233765 4.40908154 4.15692194
99 2 10.18233765 8.81816307 4.15692194
100 2 10.18233765 13.22724461 4.15692194
101 2 10.18233765 17.63632615 4.15692194
102 2 10.18233765 22.04540769 4.15692194
103 2 12.72792206 0.00000000 4.15692194
104 2 12.72792206 4.40908154 4.15692194
105 2 12.72792206 8.81816307 4.15692194
106 2 12.72792206 13.22724461 4.15692194
107 2 12.72792206 17.63632615 4.15692194
108 2 12.72792206 22.04540769 4.15692194
109 2 1.27279221 0.00000000 6.23538291
110 2 1.27279221 4.40908154 6.23538291
111 2 1.27279221 8.81816307 6.23538291
112 2 1.27279221 13.22724461 6.23538291
113 2 1.27279221 17.63632615 6.23538291
114 2 1.27279221 22.04540769 6.23538291
115 2 3.81837662 0.00000000 6.23538291
116 2 3.81837662 4.40908154 6.23538291
117 2 3.81837662 8.81816307 6.23538291
118 2 3.81837662 13.22724461 6.23538291
119 2 3.81837662 17.63632615 6.23538291
120 2 3.81837662 22.04540769 6.23538291
121 2 6.36396103 0.00000000 6.23538291
122 2 6.36396103 4.40908154 6.23538291
123 2 6.36396103 8.81816307 6.23538291
124 2 6.36396103 13.22724461 6.23538291
125 2 6.36396103 17.63632615 6.23538291
126 2 6.36396103 22.04540769 6.23538291
127 2 8.90954544 0.00000000 6.23538291
128 2 8.90954544 4.40908154 6.23538291
129 2 8.90954544 8.81816307 6.23538291
130 2 8.90954544 13.22724461 6.23538291
131 2 8.90954544 17.63632615 6.23538291
132 2 8.90954544 22.04540769 6.23538291
133 2 11.45512986 0.00000000 6.23538291
134 2 11.45512986 4.40908154 6.23538291
135 2 11.45512986 8.81816307 6.23538291
136 2 11.45512986 13.22724461 6.23538291
137 2 11.45512986 17.63632615 6.23538291
138 2 11.45512986 22.04540769 6.23538291
139 2 14.00071427 0.00000000 6.23538291
140 2 14.00071427 4.40908154 6.23538291
141 2 14.00071427 8.81816307 6.23538291
142 2 14.00071427 13.22724461 6.23538291
143 2 14.00071427 17.63632615 6.23538291
144 2 14.00071427 22.04540769 6.23538291
145 2 0.00000000 0.00000000 8.31384388
146 2 0.00000000 4.40908154 8.31384388
147 2 0.00000000 8.81816307 8.31384388
148 2 0.00000000 13.22724461 8.31384388
149 2 0.00000000 17.63632615 8.31384388
150 2 0.00000000 22.04540769 8.31384388
151 2 2.54558441 0.00000000 8.31384388
152 2 2.54558441 4.40908154 8.31384388
153 2 2.54558441 8.81816307 8.31384388
154 2 2.54558441 13.22724461 8.31384388
155 2 2.54558441 17.63632615 8.31384388
156 2 2.54558441 22.04540769 8.31384388
157 2 5.09116882 0.00000000 8.31384388
158 2 5.09116882 4.40908154 8.31384388
159 2 5.09116882 8.81816307 8.31384388
160 2 5.09116882 13.22724461 8.31384388
161 2 5.09116882 17.63632615 8.31384388
162 2 5.09116882 22.04540769 8.31384388
163 2 7.63675324 0.00000000 8.31384388
164 2 7.63675324 4.40908154 8.31384388
165 2 7.63675324 8.81816307 8.31384388
166 2 7.63675324 13.22724461 8.31384388
167 2 7.63675324 17.63632615 8.31384388
168 2 7.63675324 22.04540769 8.31384388
169 2 10.18233765 0.00000000 8.31384388
170 2 10.18233765 4.40908154 8.31384388
171 2 10.18233765 8.81816307 8.31384388
172 2 10.18233765 13.22724461 8.31384388
173 2 10.18233765 17.63632615 8.31384388
174 2 10.18233765 22.04540769 8.31384388
175 2 12.72792206 0.00000000 8.31384388
176 2 12.72792206 4.40908154 8.31384388
177 2 12.72792206 8.81816307 8.31384388
178 2 12.72792206 13.22724461 8.31384388
179 2 12.72792206 17.63632615 8.31384388
180 2 12.72792206 22.04540769 8.31384388
181 2 1.27279221 2.20454077 10.39230485
182 2 1.27279221 6.61362231 10.39230485
183 2 1.27279221 11.02270384 10.39230485
184 2 1.27279221 15.43178538 10.39230485
185 2 1.27279221 19.84086692 10.39230485
186 2 1.27279221 24.24994845 10.39230485
187 2 3.81837662 2.20454077 10.39230485
188 2 3.81837662 6.61362231 10.39230485
189 2 3.81837662 11.02270384 10.39230485
190 2 3.81837662 15.43178538 10.39230485
191 2 3.81837662 19.84086692 10.39230485
192 2 3.81837662 24.24994845 10.39230485
193 2 6.36396103 2.20454077 10.39230485
194 2 6.36396103 6.61362231 10.39230485
195 2 6.36396103 11.02270384 10.39230485
196 2 6.36396103 15.43178538 10.39230485
197 2 6.36396103 19.84086692 10.39230485
198 2 6.36396103 24.24994845 10.39230485
199 2 8.90954544 2.20454077 10.39230485
200 2 8.90954544 6.61362231 10.39230485
201 2 8.90954544 11.02270384 10.39230485
202 2 8.90954544 15.43178538 10.39230485
203 2 8.90954544 19.84086692 10.39230485
204 2 8.90954544 24.24994845 10.39230485
205 2 11.45512986 2.20454077 10.39230485
206 2 11.45512986 6.61362231 10.39230485
207 2 11.45512986 11.02270384 10.39230485
208 2 11.45512986 15.43178538 10.39230485
209 2 11.45512986 19.84086692 10.39230485
210 2 11.45512986 24.24994845 10.39230485
211 2 14.00071427 2.20454077 10.39230485
212 2 14.00071427 6.61362231 10.39230485
213 2 14.00071427 11.02270384 10.39230485
214 2 14.00071427 15.43178538 10.39230485
215 2 14.00071427 19.84086692 10.39230485
216 2 14.00071427 24.24994845 10.39230485
217 2 0.00000000 0.00000000 12.47076581
218 2 0.00000000 4.40908154 12.47076581
219 2 0.00000000 8.81816307 12.47076581
220 2 0.00000000 13.22724461 12.47076581
221 2 0.00000000 17.63632615 12.47076581
222 2 0.00000000 22.04540769 12.47076581
223 2 2.54558441 0.00000000 12.47076581
224 2 2.54558441 4.40908154 12.47076581
225 2 2.54558441 8.81816307 12.47076581
226 2 2.54558441 13.22724461 12.47076581
227 2 2.54558441 17.63632615 12.47076581
228 2 2.54558441 22.04540769 12.47076581
229 2 5.09116882 0.00000000 12.47076581
230 2 5.09116882 4.40908154 12.47076581
231 2 5.09116882 8.81816307 12.47076581
232 2 5.09116882 13.22724461 12.47076581
233 2 5.09116882 17.63632615 12.47076581
234 2 5.09116882 22.04540769 12.47076581
235 2 7.63675324 0.00000000 12.47076581
236 2 7.63675324 4.40908154 12.47076581
237 2 7.63675324 8.81816307 12.47076581
238 2 7.63675324 13.22724461 12.47076581
239 2 7.63675324 17.63632615 12.47076581
240 2 7.63675324 22.04540769 12.47076581
241 2 10.18233765 0.00000000 12.47076581
242 2 10.18233765 4.40908154 12.47076581
243 2 10.18233765 8.81816307 12.47076581
244 2 10.18233765 13.22724461 12.47076581
245 2 10.18233765 17.63632615 12.47076581
246 2 10.18233765 22.04540769 12.47076581
247 2 12.72792206 0.00000000 12.47076581
248 2 12.72792206 4.40908154 12.47076581
249 2 12.72792206 8.81816307 12.47076581
250 2 12.72792206 13.22724461 12.47076581
251 2 12.72792206 17.63632615 12.47076581
252 2 12.72792206 22.04540769 12.47076581
253 2 1.27279221 0.00000000 14.54922678
254 2 1.27279221 4.40908154 14.54922678
255 2 1.27279221 8.81816307 14.54922678
256 2 1.27279221 13.22724461 14.54922678
257 2 1.27279221 17.63632615 14.54922678
258 2 1.27279221 22.04540769 14.54922678
259 2 3.81837662 0.00000000 14.54922678
260 2 3.81837662 4.40908154 14.54922678
261 2 3.81837662 8.81816307 14.54922678
262 2 3.81837662 13.22724461 14.54922678
263 2 3.81837662 17.63632615 14.54922678
264 2 3.81837662 22.04540769 14.54922678
265 2 6.36396103 0.00000000 14.54922678
266 2 6.36396103 4.40908154 14.54922678
267 2 6.36396103 8.81816307 14.54922678
268 2 6.36396103 13.22724461 14.54922678
269 2 6.36396103 17.63632615 14.54922678
270 2 6.36396103 22.04540769 14.54922678
271 2 8.90954544 0.00000000 14.54922678
272 2 8.90954544 4.40908154 14.54922678
273 2 8.90954544 8.81816307 14.54922678
274 2 8.90954544 13.22724461 14.54922678
275 2 8.90954544 17.63632615 14.54922678
276 2 8.90954544 22.04540769 14.54922678
277 2 11.45512986 0.00000000 14.54922678
278 2 11.45512986 4.40908154 14.54922678
279 2 11.45512986 8.81816307 14.54922678
280 2 11.45512986 13.22724461 14.54922678
281 2 11.45512986 17.63632615 14.54922678
282 2 11.45512986 22.04540769 14.54922678
283 2 14.00071427 0.00000000 14.54922678
284 2 14.00071427 4.40908154 14.54922678
285 2 14.00071427 8.81816307 14.54922678
286 2 14.00071427 13.22724461 14.54922678
287 2 14.00071427 17.63632615 14.54922678
288 2 14.00071427 22.04540769 14.54922678
289 2 0.00000000 0.00000000 16.62768775
290 2 0.00000000 4.40908154 16.62768775
291 2 0.00000000 8.81816307 16.62768775
292 2 0.00000000 13.22724461 16.62768775
293 2 0.00000000 17.63632615 16.62768775
294 2 0.00000000 22.04540769 16.62768775
295 2 2.54558441 0.00000000 16.62768775
296 2 2.54558441 4.40908154 16.62768775
297 2 2.54558441 8.81816307 16.62768775
298 2 2.54558441 13.22724461 16.62768775
299 2 2.54558441 17.63632615 16.62768775
300 2 2.54558441 22.04540769 16.62768775
301 2 5.09116882 0.00000000 16.62768775
302 2 5.09116882 4.40908154 16.62768775
303 2 5.09116882 8.81816307 16.62768775
304 2 5.09116882 13.22724461 16.62768775
305 2 5.09116882 17.63632615 16.62768775
306 2 5.09116882 22.04540769 16.62768775
307 2 7.63675324 0.00000000 16.62768775
308 2 7.63675324 4.40908154 16.62768775
309 2 7.63675324 8.81816307 16.62768775
310 2 7.63675324 13.22724461 16.62768775
311 2 7.63675324 17.63632615 16.62768775
312 2 7.63675324 22.04540769 16.62768775
313 2 10.18233765 0.00000000 16.62768775
314 2 10.18233765 4.40908154 16.62768775
315 2 10.18233765 8.81816307 16.62768775
316 2 10.18233765 13.22724461 16.62768775
317 2 10.18233765 17.63632615 16.62768775
318 2 10.18233765 22.04540769 16.62768775
319 2 12.72792206 0.00000000 16.62768775
320 2 12.72792206 4.40908154 16.62768775
321 2 12.72792206 8.81816307 16.62768775
322 2 12.72792206 13.22724461 16.62768775
323 2 12.72792206 17.63632615 16.62768775
324 2 12.72792206 22.04540769 16.62768775
325 2 1.27279221 2.20454077 18.70614872
326 2 1.27279221 6.61362231 18.70614872
327 2 1.27279221 11.02270384 18.70614872
328 2 1.27279221 15.43178538 18.70614872
329 2 1.27279221 19.84086692 18.70614872
330 2 1.27279221 24.24994845 18.70614872
331 2 3.81837662 2.20454077 18.70614872
332 2 3.81837662 6.61362231 18.70614872
333 2 3.81837662 11.02270384 18.70614872
334 2 3.81837662 15.43178538 18.70614872
335 2 3.81837662 19.84086692 18.70614872
336 2 3.81837662 24.24994845 18.70614872
337 2 6.36396103 2.20454077 18.70614872
338 2 6.36396103 6.61362231 18.70614872
339 2 6.36396103 11.02270384 18.70614872
340 2 6.36396103 15.43178538 18.70614872
341 2 6.36396103 19.84086692 18.70614872
342 2 6.36396103 24.24994845 18.70614872
343 2 8.90954544 2.20454077 18.70614872
344 2 8.90954544 6.61362231 18.70614872
345 2 8.90954544 11.02270384 18.70614872
346 2 8.90954544 15.43178538 18.70614872
347 2 8.90954544 19.84086692 18.70614872
348 2 8.90954544 24.24994845 18.70614872
349 2 11.45512986 2.20454077 18.70614872
350 2 11.45512986 6.61362231 18.70614872
351 2 11.45512986 11.02270384 18.70614872
352 2 11.45512986 15.43178538 18.70614872
353 2 11.45512986 19.84086692 18.70614872
354 2 11.45512986 24.24994845 18.70614872
355 2 14.00071427 2.20454077 18.70614872
356 2 14.00071427 6.61362231 18.70614872
357 2 14.00071427 11.02270384 18.70614872
358 2 14.00071427 15.43178538 18.70614872
359 2 14.00071427 19.84086692 18.70614872
360 2 14.00071427 24.24994845 18.70614872
361 2 0.00000000 0.00000000 20.78460969
362 2 0.00000000 4.40908154 20.78460969
363 2 0.00000000 8.81816307 20.78460969
364 2 0.00000000 13.22724461 20.78460969
365 2 0.00000000 17.63632615 20.78460969
366 2 0.00000000 22.04540769 20.78460969
367 2 2.54558441 0.00000000 20.78460969
368 2 2.54558441 4.40908154 20.78460969
369 2 2.54558441 8.81816307 20.78460969
370 2 2.54558441 13.22724461 20.78460969
371 2 2.54558441 17.63632615 20.78460969
372 2 2.54558441 22.04540769 20.78460969
373 2 5.09116882 0.00000000 20.78460969
374 2 5.09116882 4.40908154 20.78460969
375 2 5.09116882 8.81816307 20.78460969
376 2 5.09116882 13.22724461 20.78460969
377 2 5.09116882 17.63632615 20.78460969
378 2 5.09116882 22.04540769 20.78460969
379 2 7.63675324 0.00000000 20.78460969
380 2 7.63675324 4.40908154 20.78460969
381 2 7.63675324 8.81816307 20.78460969
382 2 7.63675324 13.22724461 20.78460969
383 2 7.63675324 17.63632615 20.78460969
384 2 7.63675324 22.04540769 20.78460969
385 2 10.18233765 0.00000000 20.78460969
386 2 10.18233765 4.40908154 20.78460969
387 2 10.18233765 8.81816307 20.78460969
388 2 10.18233765 13.22724461 20.78460969
389 2 10.18233765 17.63632615 20.78460969
390 2 10.18233765 22.04540769 20.78460969
391 2 12.72792206 0.00000000 20.78460969
392 2 12.72792206 4.40908154 20.78460969
393 2 12.72792206 8.81816307 20.78460969
394 2 12.72792206 13.22724461 20.78460969
395 2 12.72792206 17.63632615 20.78460969
396 2 12.72792206 22.04540769 20.78460969
397 2 1.27279221 0.00000000 22.86307066
398 2 1.27279221 4.40908154 22.86307066
399 2 1.27279221 8.81816307 22.86307066
400 2 1.27279221 13.22724461 22.86307066
401 2 1.27279221 17.63632615 22.86307066
402 2 1.27279221 22.04540769 22.86307066
403 2 3.81837662 0.00000000 22.86307066
404 2 3.81837662 4.40908154 22.86307066
405 2 3.81837662 8.81816307 22.86307066
406 2 3.81837662 13.22724461 22.86307066
407 2 3.81837662 17.63632615 22.86307066
408 2 3.81837662 22.04540769 22.86307066
409 2 6.36396103 0.00000000 22.86307066
410 2 6.36396103 4.40908154 22.86307066
411 2 6.36396103 8.81816307 22.86307066
412 2 6.36396103 13.22724461 22.86307066
413 2 6.36396103 17.63632615 22.86307066
414 2 6.36396103 22.04540769 22.86307066
415 2 8.90954544 0.00000000 22.86307066
416 2 8.90954544 4.40908154 22.86307066
417 2 8.90954544 8.81816307 22.86307066
418 2 8.90954544 13.22724461 22.86307066
419 2 8.90954544 17.63632615 22.86307066
420 2 8.90954544 22.04540769 22.86307066
421 2 11.45512986 0.00000000 22.86307066
422 2 11.45512986 4.40908154 22.86307066
423 2 11.45512986 8.81816307 22.86307066
424 2 11.45512986 13.22724461 22.86307066
425 2 11.45512986 17.63632615 22.86307066
426 2 11.45512986 22.04540769 22.86307066
427 2 14.00071427 0.00000000 22.86307066
428 2 14.00071427 4.40908154 22.86307066
429 2 14.00071427 8.81816307 22.86307066
430 2 14.00071427 13.22724461 22.86307066
431 2 14.00071427 17.63632615 22.86307066
432 2 14.00071427 22.04540769 22.86307066
