LAMMPS (10 Sep 2025)
  using 8 OpenMP thread(s) per MPI task
Loaded 1 plugins from C:\Users\kumar\AppData\Local\LAMMPS 64-bit 10Sep2025\plugins
using multi-threaded neighbor list subroutines
Reading data file ...
  orthogonal box = (0 0 0) to (15.51958 26.8807 25.343367)
  1 by 1 by 1 MPI processor grid
  reading atoms ...
  432 atoms
  read_data CPU = 0.014 seconds
=== STAGE 1: Energy Minimization ===
Switching to 'neigh_modify every 1 delay 0 check yes' setting during minimization
No /omp style for force computation currently active
Neighbor list info ...
  update: every = 1 steps, delay = 0 steps, check = yes
  max neighbors/atom: 4000, page size: 100000
  master list distance cutoff = 8
  ghost atom cutoff = 8
  binsize = 4, bins = 4 7 7
  2 neighbor lists, perpetual/occasional/extra = 2 0 0
  (1) pair meam, perpetual
      attributes: full, newton on, omp
      pair build: full/bin/atomonly/omp
      stencil: full/bin/3d
      bin: standard
  (2) pair meam, perpetual, half/full from (1)
      attributes: half, newton on, omp
      pair build: halffull/newton/omp
      stencil: none
      bin: none
Setting up cg style minimization ...
  Unit style    : metal
  Current step  : 0
Per MPI rank memory allocation (min/avg/max) = 19.36 | 19.36 | 19.36 Mbytes
   Step          Temp          PotEng         KinEng         TotEng         Press          Volume           Lx             Ly             Lz      
         0   0             -1262.1994      0             -1262.1994     -44648.019      10572.674      15.51958       26.8807        25.343367    
       215   0             -1590.8298      0             -1590.8298     -60297.674      10572.674      15.51958       26.8807        25.343367    
Loop time of 3.62527 on 8 procs for 215 steps with 432 atoms

91.4% CPU use with 1 MPI tasks x 8 OpenMP threads

Minimization stats:
  Stopping criterion = energy tolerance
  Energy initial, next-to-last, final = 
     -1262.19940430986    -1590.828830457  -1590.82975324209
  Force two-norm initial, final = 49.821112 6.2950817
  Force max component initial, final = 6.8015123 1.9760944
  Final line search alpha, max atom move = 0.035287018 0.069730476
  Iterations, force evaluations = 215 585

MPI task timing breakdown:
Section |  min time  |  avg time  |  max time  |%varavg| %total
---------------------------------------------------------------
Pair    | 3.5201     | 3.5201     | 3.5201     |   0.0 | 97.10
Neigh   | 0.004421   | 0.004421   | 0.004421   |   0.0 |  0.12
Comm    | 0.007373   | 0.007373   | 0.007373   |   0.0 |  0.20
Output  | 0          | 0          | 0          |   0.0 |  0.00
Modify  | 0.083933   | 0.083933   | 0.083933   |   0.0 |  2.32
Other   |            | 0.009441   |            |       |  0.26

Nlocal:            432 ave         432 max         432 min
Histogram: 1 0 0 0 0 0 0 0 0 0
Nghost:           1847 ave        1847 max        1847 min
Histogram: 1 0 0 0 0 0 0 0 0 0
Neighs:          18594 ave       18594 max       18594 min
Histogram: 1 0 0 0 0 0 0 0 0 0
FullNghs:        37188 ave       37188 max       37188 min
Histogram: 1 0 0 0 0 0 0 0 0 0

Total # of neighbors = 37188
Ave neighs/atom = 86.083333
Neighbor list builds = 6
Dangerous builds = 0
Minimized PE/atom: -3.68247628065298 eV/atom
=== STAGE 2: NPT Equilibration at 400 K ===
No /omp style for force computation currently active
Setting up Verlet run ...
  Unit style    : metal
  Current step  : 0
  Time step     : 0.002
Per MPI rank memory allocation (min/avg/max) = 18.25 | 18.25 | 18.25 Mbytes
   Step          Temp          PotEng         KinEng         TotEng         Press          Volume           Lx             Ly             Lz      
         0   400           -1590.8298      22.284449     -1568.5453     -58046.359      10572.674      15.51958       26.8807        25.343367    
       500   805.84039     -1829.7522      44.894273     -1784.8579     -8033.0543      6165.974       12.966385      22.458437      21.174017    
      1000   398.95935     -1906.335       22.226473     -1884.1085     -3647.5065      5657.04        12.599348      21.822712      20.57465     
      1500   415.97355     -1924.699       23.174353     -1901.5246      3345.7681      5582.2367      12.543568      21.726097      20.483561    
      2000   420.3604      -1927.6734      23.41875      -1904.2547      1386.6361      5569.3487      12.533907      21.709364      20.467785    
      2500   394.18456     -1932.955       21.960464     -1910.9946     -4836.1894      5555.4161      12.523447      21.691246      20.450703    
      3000   397.06635     -1945.4238      22.121012     -1923.3028      997.90221      5496.4102      12.47895       21.614176      20.37804     
      3500   395.38388     -1947.2535      22.02728      -1925.2262     -1786.411       5495.8135      12.478498      21.613393      20.377303    
      4000   425.73621     -1949.3551      23.718242     -1925.6369      1920.616       5486.8033      12.471675      21.601575      20.366161    
      4500   414.90826     -1953.8143      23.115005     -1930.6993     -4865.9434      5480.635       12.467         21.593478      20.358526    
      5000   396.19511     -1954.8733      22.072474     -1932.8008     -1648.2379      5465.0274      12.455154      21.57296       20.339182    
      5500   399.79837     -1955.9887      22.273216     -1933.7155      2109.6675      5455.4597      12.447882      21.560364      20.327306    
      6000   397.33302     -1956.5272      22.135868     -1934.3913      879.62262      5467.5947      12.457104      21.576338      20.342366    
      6500   388.30574     -1955.1441      21.632948     -1933.5111      449.30163      5469.7077      12.458709      21.579117      20.344987    
      7000   416.51193     -1956.0837      23.204347     -1932.8794      2536.1905      5439.5319      12.435756      21.539361      20.307504    
      7500   420.77288     -1958.5626      23.441729     -1935.1209     -2936.7018      5459.0659      12.450624      21.565113      20.331784    
      8000   412.49562     -1958.8646      22.980594     -1935.884       4766.4508      5421.3436      12.421879      21.515326      20.284844    
      8500   393.93482     -1959.4626      21.946551     -1937.5161     -261.35855      5438.8487      12.435235      21.538459      20.306654    
      9000   410.96812     -1958.8833      22.895495     -1935.9878     -1512.4329      5456.0379      12.448321      21.561125      20.328024    
      9500   398.05845     -1960.4146      22.176283     -1938.2383     -1209.4065      5437.7476      12.434396      21.537005      20.305283    
     10000   403.36568     -1958.9074      22.471955     -1936.4354     -4229.5148      5444.7789      12.439753      21.546284      20.314031    
     10500   382.36693     -1958.1286      21.302091     -1936.8265      2516.7647      5441.654       12.437373      21.542161      20.310144    
     11000   396.22573     -1959.9582      22.07418      -1937.884      -3299.1562      5445.3368      12.440178      21.54702       20.314725    
     11500   379.90341     -1958.9628      21.164845     -1937.798       824.54217      5438.8525      12.435238      21.538464      20.306658    
     12000   373.0048      -1958.3677      20.780516     -1937.5872      5075.956       5416.2059      12.417954      21.508528      20.278434    
     12500   405.21166     -1958.8265      22.574796     -1936.2517      167.82299      5449.3352      12.443222      21.552292      20.319696    
     13000   421.56641     -1957.6126      23.485938     -1934.1267      1402.022       5457.3812      12.449343      21.562895      20.329692    
     13500   394.80066     -1959.8909      21.994788     -1937.8961      4135.4763      5432.3641      12.430291      21.529895      20.29858     
     14000   393.20953     -1959.8464      21.906144     -1937.9402      5752.5387      5418.9721      12.420068      21.512189      20.281886    
     14500   403.14863     -1958.4538      22.459863     -1935.9939     -1617.6653      5449.116       12.443055      21.552003      20.319424    
     15000   414.05909     -1957.9091      23.067696     -1934.8414      2911.7397      5434.0184      12.431553      21.532081      20.30064     
     15500   392.39896     -1960.5077      21.860986     -1938.6467      728.1154       5434.7797      12.432133      21.533086      20.301588    
     16000   394.47895     -1959.4281      21.976865     -1937.4512     -550.90027      5438.631       12.435069      21.538171      20.306383    
     16500   390.46405     -1959.0388      21.753191     -1937.2856     -1856.3846      5440.1826      12.436251      21.540219      20.308314    
     17000   371.21005     -1960.7019      20.680529     -1940.0213     -1274.8387      5442.4684      12.437993      21.543236      20.311157    
     17500   366.70947     -1959.8433      20.429796     -1939.4135      1682.6444      5432.0243      12.430032      21.529447      20.298157    
     18000   411.30351     -1962.1167      22.91418      -1939.2026     -6046.4822      5462.8575      12.453506      21.570105      20.33649     
     18500   416.77211     -1960.5667      23.218842     -1937.3479      10518.843      5408.3203      12.411925      21.498084      20.268588    
     19000   401.28666     -1960.32        22.35613      -1937.9639     -1353.9519      5443.3682      12.438678      21.544423      20.312277    
     19500   394.67881     -1961.6637      21.987999     -1939.6757     -8190.1167      5464.6266      12.45485       21.572433      20.338685    
     20000   378.4413      -1960.7454      21.08339      -1939.662       658.93809      5430.6772      12.429004      21.527667      20.296479    
Loop time of 258.419 on 8 procs for 20000 steps with 432 atoms

Performance: 13.374 ns/day, 1.795 hours/ns, 77.394 timesteps/s, 33.434 katom-step/s
96.2% CPU use with 1 MPI tasks x 8 OpenMP threads

MPI task timing breakdown:
Section |  min time  |  avg time  |  max time  |%varavg| %total
---------------------------------------------------------------
Pair    | 235.31     | 235.31     | 235.31     |   0.0 | 91.06
Neigh   | 0.022908   | 0.022908   | 0.022908   |   0.0 |  0.01
Comm    | 0.30088    | 0.30088    | 0.30088    |   0.0 |  0.12
Output  | 0.004031   | 0.004031   | 0.004031   |   0.0 |  0.00
Modify  | 22.713     | 22.713     | 22.713     |   0.0 |  8.79
Other   |            | 0.06488    |            |       |  0.03

Nlocal:            432 ave         432 max         432 min
Histogram: 1 0 0 0 0 0 0 0 0 0
Nghost:           2631 ave        2631 max        2631 min
Histogram: 1 0 0 0 0 0 0 0 0 0
Neighs:          36193 ave       36193 max       36193 min
Histogram: 1 0 0 0 0 0 0 0 0 0
FullNghs:        72386 ave       72386 max       72386 min
Histogram: 1 0 0 0 0 0 0 0 0 0

Total # of neighbors = 72386
Ave neighs/atom = 167.56019
Neighbor list builds = 25
Dangerous builds = 0
=== STAGE 3: NPT Production at 400 K ===
No /omp style for force computation currently active
Setting up Verlet run ...
  Unit style    : metal
  Current step  : 0
  Time step     : 0.001
Per MPI rank memory allocation (min/avg/max) = 18.86 | 18.86 | 18.86 Mbytes
   Step          Temp          PotEng         KinEng         TotEng         Press          Volume           Lx             Ly             Lz      
         0   378.4413      -1960.7454      21.08339      -1939.662       658.93809      5430.6772      12.429004      21.527667      20.296479    
       500   392.67496     -1961.1273      21.876363     -1939.2509     -2496.0479      5441.2883      12.437094      21.541679      20.309689    
      1000   411.18479     -1961.6315      22.907566     -1938.724      -269.50444      5436.1421      12.433172      21.534885      20.303285    
      1500   398.83184     -1961.0801      22.21937      -1938.8607     -5822.5794      5465.0659      12.455184      21.573011      20.33923     
      2000   400.52778     -1960.79        22.313852     -1938.4762      5589.0426      5412.9365      12.415455      21.504199      20.274353    
      2500   391.71412     -1961.3092      21.822833     -1939.4863     -80.835733      5431.8162      12.429873      21.529172      20.297898    
      3000   374.87597     -1960.3847      20.884761     -1939.4999      547.06038      5439.3018      12.43558       21.539057      20.307218    
      3500   390.32982     -1961.2226      21.745713     -1939.4769     -431.66128      5442.0853      12.437701      21.54273       20.310681    
      4000   404.86934     -1960.7852      22.555726     -1938.2295     -3543.8835      5452.52        12.445645      21.55649       20.323654    
      4500   415.01506     -1961.2639      23.120955     -1938.143       1420.9442      5435.9142      12.432998      21.534584      20.303001    
      5000   394.52172     -1961.4956      21.979248     -1939.5164      37.158861      5440.5467      12.436529      21.5407        20.308767    
      5500   380.87576     -1961.9305      21.219016     -1940.7115      1142.6955      5427.6695      12.426709      21.523692      20.292731    
      6000   393.55869     -1961.0742      21.925596     -1939.1486     -2324.7699      5443.6199      12.43887       21.544755      20.31259     
      6500   403.96304     -1960.1513      22.505234     -1937.6461     -4184.3977      5452.3621      12.445525      21.556282      20.323458    
      7000   389.96188     -1960.5872      21.725214     -1938.862       6732.7169      5409.8406      12.413088      21.500099      20.270487    
      7500   366.60553     -1960.798       20.424006     -1940.374      -1458.5492      5447.5687      12.441877      21.549963      20.3175      
      8000   387.95339     -1961.6686      21.613319     -1940.0553     -8583.9935      5463.3973      12.453916      21.570815      20.33716     
      8500   377.4544      -1961.1169      21.028408     -1940.0885      1329.8453      5427.575       12.426637      21.523567      20.292613    
      9000   386.73528     -1959.9024      21.545456     -1938.357       586.14057      5438.2345      12.434767      21.537648      20.305889    
      9500   398.51802     -1961.005       22.201886     -1938.8031     -2226.4921      5437.0446      12.43386       21.536077      20.304408    
     10000   425.98381     -1961.9496      23.732036     -1938.2176      5463.2062      5415.9479      12.417757      21.508186      20.278113    
     10500   416.8802      -1959.6966      23.224864     -1936.4718     -9427.7805      5472.0911      12.460518      21.582251      20.347941    
     11000   428.73957     -1961.1601      23.885563     -1937.2746      7629.3415      5400.8941      12.406241      21.48824       20.259307    
     11500   420.72698     -1961.5863      23.439173     -1938.1471     -5390.3542      5461.5051      12.452478      21.568325      20.334811    
     12000   404.45074     -1962.2073      22.532405     -1939.6749     -3352.4284      5437.0369      12.433854      21.536067      20.304398    
     12500   413.9152      -1961.8873      23.05968      -1938.8276     -1241.6865      5432.9164      12.430712      21.530625      20.299268    
     13000   400.407       -1960.3359      22.307123     -1938.0288      1356.3844      5414.1456      12.41638       21.5058        20.275863    
     13500   436.56157     -1961.5011      24.321335     -1937.1797     -1827.6739      5439.6845      12.435872      21.539562      20.307694    
     14000   419.13236     -1961.4901      23.350334     -1938.1397      2966.8157      5415.5756      12.417473      21.507693      20.277648    
     14500   389.82594     -1960.5749      21.71764      -1938.8573      3055.2673      5421.5625      12.422047      21.515616      20.285117    
     15000   387.72811     -1960.8714      21.600769     -1939.2706     -3450.4659      5444.4353      12.439491      21.545831      20.313604    
     15500   398.34167     -1960.4502      22.192062     -1938.2581      591.54433      5435.8042      12.432914      21.534439      20.302864    
     16000   411.66217     -1959.5481      22.934161     -1936.6139     -4348.4879      5457.0729      12.449109      21.562489      20.329309    
     16500   432.20311     -1962.2184      24.07852      -1938.1399      2143.477       5416.8391      12.418438      21.509366      20.279225    
     17000   402.04333     -1962.3543      22.398285     -1939.956       6441.9512      5405.5755      12.409825      21.494447      20.265159    
     17500   398.06122     -1961.4669      22.176437     -1939.2905      622.17599      5420.51        12.421243      21.514224      20.283805    
     18000   423.75793     -1959.8079      23.60803      -1936.1999     -279.94873      5450.9343      12.444439      21.5544        20.321684    
     18500   419.07828     -1960.9868      23.347321     -1937.6395     -5249.4339      5451.7141      12.445032      21.555428      20.322653    
     19000   401.84362     -1962.1417      22.387159     -1939.7546      3682.5962      5397.6804      12.40378       21.483977      20.255288    
     19500   410.04155     -1958.7733      22.843875     -1935.9294     -2560.7676      5451.218       12.444655      21.554774      20.322036    
     20000   421.82089     -1961.7744      23.500115     -1938.2743      366.42514      5413.5484      12.415923      21.505009      20.275117    
     20500   411.08575     -1961.9872      22.902049     -1939.0852     -7626.6445      5460.6296      12.451813      21.567172      20.333725    
     21000   395.27343     -1960.6756      22.021126     -1938.6545     -146.99848      5428.3592      12.427235      21.524603      20.293591    
     21500   411.80764     -1961.1525      22.942266     -1938.2103      2816.9161      5414.509       12.416657      21.506281      20.276317    
     22000   392.89259     -1961.9008      21.888487     -1940.0123     -5184.8834      5452.4956      12.445627      21.556458      20.323624    
     22500   352.8139      -1960.7588      19.655658     -1941.1032     -5663.3831      5443.1327      12.438499      21.544112      20.311984    
     23000   418.02434     -1961.5661      23.288605     -1938.2775      3207.2446      5416.6088      12.418262      21.509061      20.278937    
     23500   390.43828     -1958.7647      21.751755     -1937.0129     -820.60427      5439.2638      12.435551      21.539007      20.30717     
     24000   391.72058     -1959.9322      21.823193     -1938.109      -2439.7311      5446.9986      12.441443      21.549212      20.316791    
     24500   403.64812     -1961.5935      22.48769      -1939.1058      2856.1387      5419.8392      12.42073       21.513336      20.282968    
     25000   393.75664     -1962.1975      21.936624     -1940.2608     -1429.0685      5427.0441      12.426232      21.522865      20.291952    
     25500   405.30617     -1962.7611      22.580062     -1940.181      -376.86989      5424.9485      12.424632      21.520094      20.289339    
     26000   386.09535     -1960.4671      21.509805     -1938.9573     -1729.6042      5436.5971      12.433519      21.535486      20.303851    
     26500   407.55571     -1961.3288      22.705386     -1938.6234      5896.4238      5406.3797      12.41044       21.495513      20.266164    
     27000   399.51457     -1960.1521      22.257405     -1937.8947     -254.36903      5427.654       12.426697      21.523671      20.292712    
     27500   400.57807     -1959.4319      22.316654     -1937.1153      1247.1585      5428.3779      12.42725       21.524628      20.293614    
     28000   409.9903      -1960.5465      22.84102      -1937.7055      2211.2159      5419.6923      12.420618      21.513142      20.282785    
     28500   417.88845     -1962.2845      23.281035     -1939.0035     -2477.7931      5435.8363      12.432939      21.534482      20.302904    
     29000   395.1851      -1961.1491      22.016205     -1939.1329      6500.8928      5401.4288      12.406651      21.488949      20.259976    
     29500   401.77653     -1960.2942      22.383422     -1937.9107     -1454.1806      5437.8618      12.434483      21.537156      20.305425    
     30000   401.64032     -1961.8844      22.375833     -1939.5086      4356.559       5413.3917      12.415803      21.504802      20.274922    
     30500   391.96436     -1962.414       21.836775     -1940.5773      1326.6576      5412.0253      12.414758      21.502992      20.273216    
     31000   402.4305      -1961.077       22.419855     -1938.6572      2000.3703      5407.479       12.411281      21.49697       20.267537    
     31500   388.06378     -1961.2366      21.619469     -1939.6171     -4553.7051      5448.6334      12.442688      21.551367      20.318824    
     32000   399.83642     -1962.3303      22.275336     -1940.055       10994.18       5383.5505      12.392947      21.465214      20.237598    
     32500   397.04182     -1960.9429      22.119645     -1938.8232      1847.6103      5431.404       12.429559      21.528627      20.297384    
     33000   402.01084     -1960.8879      22.396475     -1938.4914     -2690.4518      5441.3596      12.437148      21.541773      20.309778    
     33500   356.79074     -1963.0265      19.877213     -1943.1493      6047.6607      5401.1425      12.406431      21.48857       20.259618    
     34000   393.3335      -1961.1366      21.913051     -1939.2236     -2466.3166      5441.2761      12.437085      21.541662      20.309674    
     34500   400.33972     -1960.3662      22.303375     -1938.0628     -4028.3185      5447.2485      12.441633      21.549541      20.317102    
     35000   426.42071     -1959.0381      23.756377     -1935.2818      431.57916      5429.0102      12.427732      21.525464      20.294402    
     35500   388.36567     -1961.0414      21.636287     -1939.4051     -1035.9181      5430.313       12.428726      21.527185      20.296025    
     36000   405.25726     -1962.3126      22.577337     -1939.7353     -1300.0839      5431.9828      12.43          21.529392      20.298105    
     36500   388.39425     -1962.4238      21.63788      -1940.7859     -626.3075       5430.5328      12.428894      21.527476      20.296299    
     37000   393.28839     -1960.8522      21.910538     -1938.9416     -2813.7606      5430.5052      12.428873      21.527439      20.296264    
     37500   424.29843     -1960.1446      23.638142     -1936.5064      2733.3011      5427.1004      12.426275      21.522939      20.292022    
     38000   399.56174     -1961.7096      22.260033     -1939.4496     -2795.2774      5429.4819      12.428092      21.526087      20.29499     
     38500   405.97652     -1962.3985      22.617408     -1939.7811      6374.4647      5398.2615      12.404225      21.484748      20.256015    
     39000   412.56597     -1962.5781      22.984513     -1939.5936     -3455.3033      5437.2563      12.434021      21.536356      20.304672    
     39500   398.18484     -1960.9937      22.183324     -1938.8104      5929.3478      5412.7732      12.41533       21.503983      20.274149    
     40000   402.13514     -1960.3997      22.4034       -1937.9963     -1386.3392      5450.5857      12.444174      21.553941      20.32125     
     40500   414.33929     -1960.7202      23.083307     -1937.6369      2488.1602      5418.2595      12.419524      21.511246      20.280997    
     41000   398.14128     -1960.9747      22.180898     -1938.7938     -1806.0648      5434.4209      12.431859      21.532612      20.301141    
     41500   374.0703      -1961.1126      20.839877     -1940.2727      66.214391      5439.5186      12.435745      21.539343      20.307487    
     42000   429.66328     -1962.0476      23.937024     -1938.1106      3395.2317      5402.5426      12.407503      21.490426      20.261368    
     42500   398.28675     -1960.0561      22.189002     -1937.8671     -5114.6198      5449.7483      12.443536      21.552837      20.32021     
     43000   402.68383     -1959.564       22.433968     -1937.1301     -409.07406      5430.5222      12.428886      21.527462      20.296286    
     43500   389.25518     -1960.991       21.685843     -1939.3051     -4931.2255      5437.462       12.434178      21.536628      20.304928    
     44000   410.00615     -1962.1779      22.841903     -1939.336       2678.1199      5420.3302      12.421105      21.513986      20.28358     
     44500   407.06822     -1961.1486      22.678227     -1938.4704      2871.453       5421.0929      12.421688      21.514995      20.284532    
     45000   436.32591     -1961.125       24.308206     -1936.8168      751.63086      5412.1912      12.414885      21.503212      20.273423    
     45500   421.24614     -1962.4548      23.468095     -1938.9867      5387.6219      5406.8973      12.410836      21.496199      20.266811    
     46000   395.7794      -1961.5964      22.049315     -1939.5471      3541.6225      5423.5791      12.423587      21.518283      20.287632    
     46500   393.29169     -1960.8469      21.910721     -1938.9362     -4618.7551      5444.1617      12.439283      21.54547       20.313264    
     47000   433.37118     -1961.5304      24.143595     -1937.3868      2484.3666      5408.9425      12.412401      21.498909      20.269366    
     47500   417.31419     -1960.3957      23.249042     -1937.1467     -589.45671      5426.0323      12.42546       21.521527      20.29069     
     48000   409.99629     -1961.8062      22.841354     -1938.9649      3625.2295      5404.1523      12.408736      21.49256       20.26338     
     48500   408.31546     -1961.6012      22.747713     -1938.8535     -361.59996      5425.4399      12.425007      21.520744      20.289952    
     49000   370.07387     -1961.0468      20.617231     -1940.4296     -1771.059       5430.0401      12.428518      21.526825      20.295685    
     49500   388.50597     -1960.8756      21.644104     -1939.2315     -683.45699      5422.6049      12.422843      21.516995      20.286417    
     50000   382.86321     -1959.4006      21.329739     -1938.0709      7037.7351      5402.7901      12.407693      21.490754      20.261678    
Loop time of 637.066 on 8 procs for 50000 steps with 432 atoms

Performance: 6.781 ns/day, 3.539 hours/ns, 78.485 timesteps/s, 33.905 katom-step/s
96.3% CPU use with 1 MPI tasks x 8 OpenMP threads

MPI task timing breakdown:
Section |  min time  |  avg time  |  max time  |%varavg| %total
---------------------------------------------------------------
Pair    | 579.63     | 579.63     | 579.63     |   0.0 | 90.98
Neigh   | 0          | 0          | 0          |   0.0 |  0.00
Comm    | 0.73522    | 0.73522    | 0.73522    |   0.0 |  0.12
Output  | 0.008854   | 0.008854   | 0.008854   |   0.0 |  0.00
Modify  | 56.542     | 56.542     | 56.542     |   0.0 |  8.88
Other   |            | 0.1479     |            |       |  0.02

Nlocal:            432 ave         432 max         432 min
Histogram: 1 0 0 0 0 0 0 0 0 0
Nghost:           2632 ave        2632 max        2632 min
Histogram: 1 0 0 0 0 0 0 0 0 0
Neighs:          36352 ave       36352 max       36352 min
Histogram: 1 0 0 0 0 0 0 0 0 0
FullNghs:        72704 ave       72704 max       72704 min
Histogram: 1 0 0 0 0 0 0 0 0 0

Total # of neighbors = 72704
Ave neighs/atom = 168.2963
Neighbor list builds = 0
Dangerous builds = 0

=== FINAL RESULTS: DHCP at 400 K ===
Atoms: 432 | PE/atom: -4.53932061868987 eV/atom
WARNING: Detected non-ASCII characters in input. Will try to continue by replacing with ASCII equivalents where known. (src/input.cpp:479)
Volume: 5402.79007063892 …³ | Area: 266.650678847752 ²
==========================================
DHCP 400 432 -4.53932061868987 5402.79007063892 12.4076928218889 21.490754379198 20.2616775400137 266.650678847752
Simulation complete!
Total wall time: 0:14:59
