LAMMPS (10 Sep 2025)
  using 8 OpenMP thread(s) per MPI task
Loaded 1 plugins from C:\Users\kumar\AppData\Local\LAMMPS 64-bit 10Sep2025\plugins
using multi-threaded neighbor list subroutines
Reading data file ...
  orthogonal box = (0 0 0) to (21.948 21.948 21.948)
  1 by 1 by 1 MPI processor grid
  reading atoms ...
  864 atoms
  read_data CPU = 0.020 seconds
=== STAGE 1: Energy Minimization ===
Switching to 'neigh_modify every 1 delay 0 check yes' setting during minimization
No /omp style for force computation currently active
Neighbor list info ...
  update: every = 1 steps, delay = 0 steps, check = yes
  max neighbors/atom: 4000, page size: 100000
  master list distance cutoff = 8
  ghost atom cutoff = 8
  binsize = 4, bins = 6 6 6
  2 neighbor lists, perpetual/occasional/extra = 2 0 0
  (1) pair meam, perpetual
      attributes: full, newton on, omp
      pair build: full/bin/atomonly/omp
      stencil: full/bin/3d
      bin: standard
  (2) pair meam, perpetual, half/full from (1)
      attributes: half, newton on, omp
      pair build: halffull/newton/omp
      stencil: none
      bin: none
Setting up cg style minimization ...
  Unit style    : metal
  Current step  : 0
Per MPI rank memory allocation (min/avg/max) = 21.26 | 21.26 | 21.26 Mbytes
   Step          Temp          PotEng         KinEng         TotEng         Press          Volume           Lx             Ly             Lz      
         0   0             -3768.232       0             -3768.232      -10136.496      10572.674      21.948         21.948         21.948       
        19   0             -3913.9157      0             -3913.9157     -20874.917      10572.674      21.948         21.948         21.948       
Loop time of 1.07395 on 8 procs for 19 steps with 864 atoms

90.2% CPU use with 1 MPI tasks x 8 OpenMP threads

Minimization stats:
  Stopping criterion = energy tolerance
  Energy initial, next-to-last, final = 
     -3768.23204552934  -3913.91296360747  -3913.91568891462
  Force two-norm initial, final = 82.774917 13.698936
  Force max component initial, final = 6.7814914 3.8359693
  Final line search alpha, max atom move = 0.10006285 0.38383802
  Iterations, force evaluations = 19 38

MPI task timing breakdown:
Section |  min time  |  avg time  |  max time  |%varavg| %total
---------------------------------------------------------------
Pair    | 1.064      | 1.064      | 1.064      |   0.0 | 99.07
Neigh   | 0          | 0          | 0          |   0.0 |  0.00
Comm    | 0.000944   | 0.000944   | 0.000944   |   0.0 |  0.09
Output  | 0          | 0          | 0          |   0.0 |  0.00
Modify  | 0.008069   | 0.008069   | 0.008069   |   0.0 |  0.75
Other   |            | 0.00097    |            |       |  0.09

Nlocal:            864 ave         864 max         864 min
Histogram: 1 0 0 0 0 0 0 0 0 0
Nghost:           3767 ave        3767 max        3767 min
Histogram: 1 0 0 0 0 0 0 0 0 0
Neighs:          76032 ave       76032 max       76032 min
Histogram: 1 0 0 0 0 0 0 0 0 0
FullNghs:       152064 ave      152064 max      152064 min
Histogram: 1 0 0 0 0 0 0 0 0 0

Total # of neighbors = 152064
Ave neighs/atom = 176
Neighbor list builds = 0
Dangerous builds = 0
Minimized PE/atom: -4.52999501031784 eV/atom
=== STAGE 2: NPT Equilibration at 400 K ===
No /omp style for force computation currently active
Setting up Verlet run ...
  Unit style    : metal
  Current step  : 0
  Time step     : 0.002
Per MPI rank memory allocation (min/avg/max) = 20.14 | 20.14 | 20.14 Mbytes
   Step          Temp          PotEng         KinEng         TotEng         Press          Volume           Lx             Ly             Lz      
         0   400           -3913.9157      44.620602     -3869.2951     -16367.065      10572.674      21.948         21.948         21.948       
       500   391.28408     -3876.0416      43.648328     -3832.3933      5585.8935      10567.315      21.944291      21.944291      21.944291    
      1000   391.63135     -3876.7323      43.687066     -3833.0452     -186.07546      10605.988      21.971028      21.971028      21.971028    
      1500   400.88353     -3875.5091      44.719162     -3830.79       -1742.2826      10616.353      21.978183      21.978183      21.978183    
      2000   409.48659     -3873.0811      45.678845     -3827.4022      2829.8029      10595.477      21.963767      21.963767      21.963767    
      2500   413.52585     -3874.8346      46.129431     -3828.7052     -3459.2299      10633.751      21.990182      21.990182      21.990182    
      3000   403.87072     -3875.2566      45.052387     -3830.2042     -2924.9979      10629.156      21.987015      21.987015      21.987015    
      3500   387.71844     -3873.5155      43.250575     -3830.2649     -170.73817      10615.974      21.977921      21.977921      21.977921    
      4000   383.45518     -3873.9942      42.775002     -3831.2192      2737.6616      10576.982      21.950981      21.950981      21.950981    
      4500   395.77125     -3874.2169      44.148879     -3830.068       1294.1553      10611.424      21.974781      21.974781      21.974781    
      5000   408.65769     -3874.6011      45.58638      -3829.0147     -902.01563      10623.467      21.983091      21.983091      21.983091    
      5500   381.3682      -3875.0817      42.542197     -3832.5395     -2560.1285      10615.644      21.977694      21.977694      21.977694    
      6000   388.58206     -3876.2669      43.346913     -3832.92        6342.3513      10567.183      21.944199      21.944199      21.944199    
      6500   400.30503     -3875.3584      44.654628     -3830.7038     -2128.942       10616.664      21.978397      21.978397      21.978397    
      7000   408.45667     -3875.8122      45.563956     -3830.2482     -1267.4271      10611.64       21.97493       21.97493       21.97493     
      7500   396.28347     -3874.5533      44.206017     -3830.3473     -1286.3774      10627.069      21.985575      21.985575      21.985575    
      8000   374.79494     -3876.6253      41.80894      -3834.8164     -714.56464      10613.708      21.976357      21.976357      21.976357    
      8500   396.41942     -3876.5574      44.221183     -3832.3362      4217.1962      10578.674      21.952151      21.952151      21.952151    
      9000   405.98814     -3874.8876      45.288589     -3829.599      -604.97896      10616.956      21.978599      21.978599      21.978599    
      9500   422.94555     -3876.0964      47.180213     -3828.9162     -5157.7838      10648.286      22.000197      22.000197      22.000197    
     10000   399.89726     -3872.5193      44.609141     -3827.9102     -4797.3706      10660.635      22.008698      22.008698      22.008698    
     10500   411.13408     -3875.5672      45.862625     -3829.7046      2233.2868      10600.729      21.967396      21.967396      21.967396    
     11000   398.81516     -3875.5233      44.488431     -3831.0348     -84.137961      10619.545      21.980386      21.980386      21.980386    
     11500   390.36319     -3876.8298      43.545602     -3833.2842     -372.79972      10616.813      21.9785        21.9785        21.9785      
     12000   373.40631     -3875.5067      41.654036     -3833.8526      1088.3459      10606.074      21.971087      21.971087      21.971087    
     12500   405.25199     -3875.3725      45.206469     -3830.166       3210.561       10603.723      21.969464      21.969464      21.969464    
     13000   406.52905     -3874.4924      45.348927     -3829.1435      3273.7514      10602.44       21.968578      21.968578      21.968578    
     13500   393.57722     -3876.509       43.904132     -3832.6049     -1262.5409      10617.275      21.978819      21.978819      21.978819    
     14000   390.07883     -3873.918       43.51388      -3830.4041     -4550.6252      10662.955      22.010295      22.010295      22.010295    
     14500   402.10354     -3873.8881      44.855255     -3829.0328      5345.0785      10584.846      21.956419      21.956419      21.956419    
     15000   418.22914     -3873.4064      46.65409      -3826.7523      91.099969      10635.046      21.991075      21.991075      21.991075    
     15500   412.44671     -3873.567       46.009051     -3827.558      -4827.3823      10663.776      22.01086       22.01086       22.01086     
     16000   401.23786     -3876.3277      44.758687     -3831.569       3890.8336      10572.74       21.948046      21.948046      21.948046    
     16500   394.01134     -3875.2984      43.952558     -3831.3459      6408.9966      10564.114      21.942075      21.942075      21.942075    
     17000   396.35231     -3873.5973      44.213697     -3829.3836      1054.5731      10601.615      21.968008      21.968008      21.968008    
     17500   401.7975      -3873.8512      44.821116     -3829.03        1731.0489      10590.223      21.960137      21.960137      21.960137    
     18000   395.8075      -3874.9131      44.152922     -3830.7601     -97.554065      10601.356      21.967829      21.967829      21.967829    
     18500   397.08512     -3875.796       44.295442     -3831.5006      132.97693      10607.742      21.972239      21.972239      21.972239    
     19000   400.23217     -3874.642       44.646501     -3829.9955      1933.5578      10608.023      21.972433      21.972433      21.972433    
     19500   391.71918     -3873.4723      43.696864     -3829.7754     -2205.2593      10634.026      21.990372      21.990372      21.990372    
     20000   396.27012     -3875.1812      44.204529     -3830.9766      786.97717      10607.049      21.971761      21.971761      21.971761    
Loop time of 541.561 on 8 procs for 20000 steps with 864 atoms

Performance: 6.382 ns/day, 3.761 hours/ns, 36.930 timesteps/s, 31.908 katom-step/s
96.1% CPU use with 1 MPI tasks x 8 OpenMP threads

MPI task timing breakdown:
Section |  min time  |  avg time  |  max time  |%varavg| %total
---------------------------------------------------------------
Pair    | 513.9      | 513.9      | 513.9      |   0.0 | 94.89
Neigh   | 0          | 0          | 0          |   0.0 |  0.00
Comm    | 0.48848    | 0.48848    | 0.48848    |   0.0 |  0.09
Output  | 0.004189   | 0.004189   | 0.004189   |   0.0 |  0.00
Modify  | 27.08      | 27.08      | 27.08      |   0.0 |  5.00
Other   |            | 0.08618    |            |       |  0.02

Nlocal:            864 ave         864 max         864 min
Histogram: 1 0 0 0 0 0 0 0 0 0
Nghost:           3767 ave        3767 max        3767 min
Histogram: 1 0 0 0 0 0 0 0 0 0
Neighs:          76182 ave       76182 max       76182 min
Histogram: 1 0 0 0 0 0 0 0 0 0
FullNghs:       152364 ave      152364 max      152364 min
Histogram: 1 0 0 0 0 0 0 0 0 0

Total # of neighbors = 152364
Ave neighs/atom = 176.34722
Neighbor list builds = 0
Dangerous builds = 0
=== STAGE 3: NPT Production at 400 K ===
No /omp style for force computation currently active
Setting up Verlet run ...
  Unit style    : metal
  Current step  : 0
  Time step     : 0.001
Per MPI rank memory allocation (min/avg/max) = 20.14 | 20.14 | 20.14 Mbytes
   Step          Temp          PotEng         KinEng         TotEng         Press          Volume           Lx             Ly             Lz      
         0   396.27012     -3875.1812      44.204529     -3830.9766      786.97717      10607.049      21.971761      21.971761      21.971761    
       500   403.86575     -3874.1587      45.051832     -3829.1069      3816.379       10595.191      21.96357       21.96357       21.96357     
      1000   389.01075     -3876.0474      43.394735     -3832.6526      47.499414      10612.688      21.975653      21.975653      21.975653    
      1500   388.93564     -3877.5441      43.386356     -3834.1577      3386.0353      10581.079      21.953815      21.953815      21.953815    
      2000   402.20805     -3874.9262      44.866914     -3830.0593     -2197.2718      10633.581      21.990065      21.990065      21.990065    
      2500   423.69122     -3875.4535      47.263393     -3828.1901      3276.3646      10588.231      21.958759      21.958759      21.958759    
      3000   404.06823     -3875.9107      45.074419     -3830.8363      2495.1208      10607.662      21.972184      21.972184      21.972184    
      3500   400.01342     -3876.9837      44.622099     -3832.3616      2103.3834      10597.858      21.965413      21.965413      21.965413    
      4000   403.77792     -3874.5376      45.042035     -3829.4955     -1194.3519      10614.391      21.976829      21.976829      21.976829    
      4500   416.58314     -3876.2957      46.470476     -3829.8252     -2962.8356      10634.664      21.990812      21.990812      21.990812    
      5000   412.40185     -3876.2269      46.004047     -3830.2229      2691.4877      10599.769      21.966733      21.966733      21.966733    
      5500   391.45266     -3876.1018      43.667133     -3832.4346     -1488.0193      10623.879      21.983375      21.983375      21.983375    
      6000   407.70303     -3875.4874      45.479886     -3830.0075      4982.4747      10580.933      21.953714      21.953714      21.953714    
      6500   402.6866      -3874.261       44.920296     -3829.3407     -1171.343       10631.009      21.988292      21.988292      21.988292    
      7000   399.64491     -3876.1909      44.580991     -3831.6099     -1728.0576      10630.985      21.988276      21.988276      21.988276    
      7500   384.18197     -3876.9379      42.856077     -3834.0819     -2538.6472      10622.259      21.982258      21.982258      21.982258    
      8000   394.7641      -3877.2368      44.03653      -3833.2003      446.3417       10603.294      21.969167      21.969167      21.969167    
      8500   404.66803     -3874.918       45.141328     -3829.7766      1780.2418      10604.904      21.97028       21.97028       21.97028     
      9000   373.08414     -3872.9811      41.618097     -3831.363      -3235.9889      10640.12       21.994572      21.994572      21.994572    
      9500   384.50617     -3876.5508      42.892242     -3833.6586      3016.1292      10592.249      21.961536      21.961536      21.961536    
     10000   396.09453     -3878.6208      44.184941     -3834.4359      391.0495       10604.725      21.970156      21.970156      21.970156    
     10500   399.31287     -3875.3323      44.543952     -3830.7883     -817.79721      10626.5        21.985183      21.985183      21.985183    
     11000   409.52872     -3875.7878      45.683545     -3830.1042      1519.2697      10619.596      21.980421      21.980421      21.980421    
     11500   399.40642     -3875.9575      44.554387     -3831.4031      290.18304      10628.924      21.986854      21.986854      21.986854    
     12000   394.46549     -3878.5396      44.003219     -3834.5364     -3338.9173      10632.614      21.989399      21.989399      21.989399    
     12500   406.66116     -3873.3731      45.363665     -3828.0094      9016.341       10551.725      21.933494      21.933494      21.933494    
     13000   412.96777     -3876.5157      46.067176     -3830.4485     -459.70088      10624.65       21.983907      21.983907      21.983907    
     13500   406.98851     -3876.8451      45.400181     -3831.4449     -2128.6063      10624.8        21.98401       21.98401       21.98401     
     14000   403.57383     -3877.2662      45.019268     -3832.247       869.22431      10599.196      21.966337      21.966337      21.966337    
     14500   393.92388     -3877.3375      43.942801     -3833.3947      2820.0169      10590.994      21.960669      21.960669      21.960669    
     15000   401.42857     -3876.007       44.779961     -3831.227       206.85629      10615.948      21.977903      21.977903      21.977903    
     15500   415.21821     -3876.0225      46.318216     -3829.7042     -1041.4208      10626.626      21.98527       21.98527       21.98527     
     16000   398.43962     -3877.2059      44.44654      -3832.7594     -1499.6479      10635.198      21.99118       21.99118       21.99118     
     16500   380.73034     -3877.1391      42.471043     -3834.668      -6426.4934      10666.686      22.012861      22.012861      22.012861    
     17000   392.9297      -3875.9794      43.8319       -3832.1475      4657.0256      10599.731      21.966707      21.966707      21.966707    
     17500   396.91119     -3876.2204      44.276041     -3831.9444     -4870.5239      10658.295      22.007088      22.007088      22.007088    
     18000   412.93544     -3874.8893      46.06357      -3828.8257     -935.32696      10647.912      21.99994       21.99994       21.99994     
     18500   420.64179     -3876.0464      46.923225     -3829.1232     -629.83148      10633.979      21.990339      21.990339      21.990339    
     19000   416.30093     -3874.2449      46.438995     -3827.8059      3676.3567      10597.861      21.965414      21.965414      21.965414    
     19500   399.19631     -3876.1391      44.530949     -3831.6081     -210.77432      10631.133      21.988377      21.988377      21.988377    
     20000   388.18302     -3875.7104      43.3024       -3832.408       2043.3001      10614.133      21.976651      21.976651      21.976651    
     20500   425.91022     -3875.8412      47.510926     -3828.3303     -2241.8966      10645.042      21.997963      21.997963      21.997963    
     21000   410.52198     -3873.5507      45.794344     -3827.7564      5101.9166      10585.874      21.95713       21.95713       21.95713     
     21500   405.74        -3874.5376      45.260907     -3829.2767     -626.56143      10628.663      21.986674      21.986674      21.986674    
     22000   404.42874     -3875.2262      45.114635     -3830.1116     -4747.2882      10645.576      21.99833       21.99833       21.99833     
     22500   381.63085     -3875.2352      42.571496     -3832.6637      547.50871      10629.592      21.987315      21.987315      21.987315    
     23000   393.16132     -3878.3322      43.857737     -3834.4744     -1367.5592      10636.961      21.992395      21.992395      21.992395    
     23500   416.25589     -3877.0681      46.433971     -3830.6342      3442.5799      10585.743      21.957039      21.957039      21.957039    
     24000   414.73132     -3875.6588      46.263903     -3829.3949      1881.1025      10592.938      21.962013      21.962013      21.962013    
     24500   410.92295     -3874.3676      45.839074     -3828.5286     -3776.5149      10656.32       22.005729      22.005729      22.005729    
     25000   409.67671     -3875.9294      45.700053     -3830.2293     -2688.4386      10626.997      21.985525      21.985525      21.985525    
     25500   398.43411     -3875.0525      44.445925     -3830.6065      2395.0989      10610.236      21.973961      21.973961      21.973961    
     26000   394.60456     -3876.0093      44.018732     -3831.9906     -3953.6299      10667.109      22.013153      22.013153      22.013153    
     26500   382.60794     -3876.7295      42.680491     -3834.049      -592.18667      10614.525      21.976921      21.976921      21.976921    
     27000   397.2848      -3877.2306      44.317717     -3832.9129      2643.2039      10587.115      21.957988      21.957988      21.957988    
     27500   389.23608     -3875.8095      43.41987      -3832.3896     -4652.4238      10658.387      22.007151      22.007151      22.007151    
     28000   393.72231     -3874.901       43.920316     -3830.9806      1732.9214      10609.727      21.97361       21.97361       21.97361     
     28500   418.96636     -3873.3322      46.736328     -3826.5959      636.92554      10636.675      21.992197      21.992197      21.992197    
     29000   409.50283     -3877.9364      45.680657     -3832.2557     -478.28448      10619.792      21.980556      21.980556      21.980556    
     29500   392.37821     -3877.1323      43.77038      -3833.362       554.53716      10599.514      21.966556      21.966556      21.966556    
     30000   397.14355     -3873.0605      44.301961     -3828.7585     -297.3674       10626.396      21.985111      21.985111      21.985111    
     30500   403.02929     -3874.4679      44.958524     -3829.5094      1046.055       10626.314      21.985055      21.985055      21.985055    
     31000   399.99773     -3875.8379      44.620349     -3831.2176      2154.7364      10601.538      21.967955      21.967955      21.967955    
     31500   393.86761     -3877.9178      43.936525     -3833.9813     -569.66194      10626.985      21.985517      21.985517      21.985517    
     32000   401.00957     -3878.2029      44.733221     -3833.4696     -4909.9083      10643.556      21.996939      21.996939      21.996939    
     32500   416.95253     -3878.6242      46.511682     -3832.1125      7218.035       10559.832      21.93911       21.93911       21.93911     
     33000   410.96843     -3876.8083      45.844147     -3830.9642     -1356.6184      10616.11       21.978015      21.978015      21.978015    
     33500   400.03478     -3875.2372      44.624481     -3830.6127     -3063.5315      10646.502      21.998968      21.998968      21.998968    
     34000   386.46029     -3875.7935      43.110227     -3832.6833     -2064.8708      10630.819      21.988161      21.988161      21.988161    
     34500   402.07165     -3877.9731      44.851698     -3833.1214      683.99617      10599.413      21.966487      21.966487      21.966487    
     35000   393.90309     -3876.1246      43.940483     -3832.1841      2833.5226      10606.876      21.971641      21.971641      21.971641    
     35500   416.57868     -3873.2451      46.469979     -3826.7751      2232.3979      10608.287      21.972615      21.972615      21.972615    
     36000   418.38645     -3877.5799      46.671638     -3830.9083     -929.50567      10617.539      21.979001      21.979001      21.979001    
     36500   386.22525     -3875.3999      43.084007     -3832.3159     -78.090921      10626.907      21.985464      21.985464      21.985464    
     37000   408.74355     -3875.6873      45.595958     -3830.0913     -4998.5378      10667.965      22.013742      22.013742      22.013742    
     37500   406.3885      -3874.2612      45.333248     -3828.928       1158.5857      10615.012      21.977257      21.977257      21.977257    
     38000   402.83247     -3873.5607      44.936568     -3828.6242     -1695.7675      10635.691      21.991519      21.991519      21.991519    
     38500   406.85469     -3875.7566      45.385253     -3830.3713      1115.5983      10615.081      21.977305      21.977305      21.977305    
     39000   391.46156     -3874.7334      43.668126     -3831.0652     -960.66777      10636.774      21.992266      21.992266      21.992266    
     39500   403.16745     -3873.1636      44.973936     -3828.1897     -3718.9614      10651.328      22.002292      22.002292      22.002292    
     40000   392.24558     -3872.963       43.755585     -3829.2074     -4750.8628      10661.336      22.009181      22.009181      22.009181    
     40500   402.6458      -3875.4618      44.915745     -3830.5461     -2795.4431      10628.575      21.986614      21.986614      21.986614    
     41000   391.59964     -3876.3793      43.68353      -3832.6958      1983.7203      10595.481      21.96377       21.96377       21.96377     
     41500   387.79755     -3877.4425      43.2594       -3834.1831     -3307.3963      10648.607      22.000418      22.000418      22.000418    
     42000   394.35269     -3876.7125      43.990636     -3832.7219     -1381.6666      10636.002      21.991734      21.991734      21.991734    
     42500   392.18212     -3875.3116      43.748506     -3831.5631     -3814.5771      10649.298      22.000894      22.000894      22.000894    
     43000   415.80604     -3875.1961      46.383789     -3828.8123     -1505.6381      10640.632      21.994925      21.994925      21.994925    
     43500   415.53214     -3873.4264      46.353236     -3827.0732      2762.8014      10623.756      21.983291      21.983291      21.983291    
     44000   412.20668     -3875.3015      45.982275     -3829.3192     -1917.0279      10646.314      21.998839      21.998839      21.998839    
     44500   422.71631     -3877.8271      47.15464      -3830.6725      1832.5805      10614.904      21.977183      21.977183      21.977183    
     45000   397.36278     -3877.1293      44.326416     -3832.8029     -5646.7232      10663.143      22.010424      22.010424      22.010424    
     45500   391.35008     -3874.3002      43.65569      -3830.6445      3182.8567      10599.468      21.966525      21.966525      21.966525    
     46000   386.45517     -3876.4344      43.109656     -3833.3248     -866.22721      10626.373      21.985095      21.985095      21.985095    
     46500   403.91581     -3876.7191      45.057416     -3831.6617      2538.0228      10612.697      21.97566       21.97566       21.97566     
     47000   410.27878     -3875.1946      45.767215     -3829.4274      1187.6939      10636.111      21.991809      21.991809      21.991809    
     47500   400.58232     -3874.9048      44.685561     -3830.2192      489.50371      10635.296      21.991247      21.991247      21.991247    
     48000   398.31436     -3876.0792      44.432566     -3831.6466     -4155.1915      10645.498      21.998277      21.998277      21.998277    
     48500   397.27326     -3876.6768      44.316431     -3832.3604      2833.7826      10604.557      21.97004       21.97004       21.97004     
     49000   430.44733     -3874.3718      48.017047     -3826.3547     -3779.5723      10651.34       22.0023        22.0023        22.0023      
     49500   407.95522     -3875.406       45.508019     -3829.898      -5851.5721      10690.06       22.028929      22.028929      22.028929    
     50000   409.08668     -3877.0058      45.634235     -3831.3716      1791.7905      10608.676      21.972884      21.972884      21.972884    
Loop time of 1244.96 on 8 procs for 50000 steps with 864 atoms

Performance: 3.470 ns/day, 6.916 hours/ns, 40.162 timesteps/s, 34.700 katom-step/s
96.2% CPU use with 1 MPI tasks x 8 OpenMP threads

MPI task timing breakdown:
Section |  min time  |  avg time  |  max time  |%varavg| %total
---------------------------------------------------------------
Pair    | 1183       | 1183       | 1183       |   0.0 | 95.03
Neigh   | 0          | 0          | 0          |   0.0 |  0.00
Comm    | 1.1302     | 1.1302     | 1.1302     |   0.0 |  0.09
Output  | 0.009153   | 0.009153   | 0.009153   |   0.0 |  0.00
Modify  | 60.586     | 60.586     | 60.586     |   0.0 |  4.87
Other   |            | 0.2016     |            |       |  0.02

Nlocal:            864 ave         864 max         864 min
Histogram: 1 0 0 0 0 0 0 0 0 0
Nghost:           3763 ave        3763 max        3763 min
Histogram: 1 0 0 0 0 0 0 0 0 0
Neighs:          75304 ave       75304 max       75304 min
Histogram: 1 0 0 0 0 0 0 0 0 0
FullNghs:       150608 ave      150608 max      150608 min
Histogram: 1 0 0 0 0 0 0 0 0 0

Total # of neighbors = 150608
Ave neighs/atom = 174.31481
Neighbor list builds = 0
Dangerous builds = 0

=== FINAL RESULTS: FCC at 400 K ===
Atoms: 864 | PE/atom: -4.48529084955854 eV/atom
WARNING: Detected non-ASCII characters in input. Will try to continue by replacing with ASCII equivalents where known. (src/input.cpp:479)
Volume: 10608.6758550275 …³ | Area: 482.807624561699 ²
==========================================
FCC 400 864 -4.48529084955854 10608.6758550275 21.9728838471808 21.9728838471808 21.9728838471808 482.807624561699
Simulation complete!
Total wall time: 0:29:47
