LAMMPS (10 Sep 2025)
  using 8 OpenMP thread(s) per MPI task
Loaded 1 plugins from C:\Users\kumar\AppData\Local\LAMMPS 64-bit 10Sep2025\plugins
using multi-threaded neighbor list subroutines
Reading data file ...
  orthogonal box = (0 0 0) to (21.948 21.948 21.948)
  1 by 1 by 1 MPI processor grid
  reading atoms ...
  864 atoms
  read_data CPU = 0.005 seconds
=== STAGE 1: Energy Minimization ===
Switching to 'neigh_modify every 1 delay 0 check yes' setting during minimization
No /omp style for force computation currently active
Neighbor list info ...
  update: every = 1 steps, delay = 0 steps, check = yes
  max neighbors/atom: 4000, page size: 100000
  master list distance cutoff = 8
  ghost atom cutoff = 8
  binsize = 4, bins = 6 6 6
  2 neighbor lists, perpetual/occasional/extra = 2 0 0
  (1) pair meam, perpetual
      attributes: full, newton on, omp
      pair build: full/bin/atomonly/omp
      stencil: full/bin/3d
      bin: standard
  (2) pair meam, perpetual, half/full from (1)
      attributes: half, newton on, omp
      pair build: halffull/newton/omp
      stencil: none
      bin: none
Setting up cg style minimization ...
  Unit style    : metal
  Current step  : 0
Per MPI rank memory allocation (min/avg/max) = 21.26 | 21.26 | 21.26 Mbytes
   Step          Temp          PotEng         KinEng         TotEng         Press          Volume           Lx             Ly             Lz      
         0   0             -3768.232       0             -3768.232      -10136.496      10572.674      21.948         21.948         21.948       
        19   0             -3913.9157      0             -3913.9157     -20874.917      10572.674      21.948         21.948         21.948       
Loop time of 0.880517 on 8 procs for 19 steps with 864 atoms

95.8% CPU use with 1 MPI tasks x 8 OpenMP threads

Minimization stats:
  Stopping criterion = energy tolerance
  Energy initial, next-to-last, final = 
     -3768.23204552934  -3913.91296360747  -3913.91568891462
  Force two-norm initial, final = 82.774917 13.698936
  Force max component initial, final = 6.7814914 3.8359693
  Final line search alpha, max atom move = 0.10006285 0.38383802
  Iterations, force evaluations = 19 38

MPI task timing breakdown:
Section |  min time  |  avg time  |  max time  |%varavg| %total
---------------------------------------------------------------
Pair    | 0.87306    | 0.87306    | 0.87306    |   0.0 | 99.15
Neigh   | 0          | 0          | 0          |   0.0 |  0.00
Comm    | 0.000873   | 0.000873   | 0.000873   |   0.0 |  0.10
Output  | 0          | 0          | 0          |   0.0 |  0.00
Modify  | 0.005631   | 0.005631   | 0.005631   |   0.0 |  0.64
Other   |            | 0.000958   |            |       |  0.11

Nlocal:            864 ave         864 max         864 min
Histogram: 1 0 0 0 0 0 0 0 0 0
Nghost:           3767 ave        3767 max        3767 min
Histogram: 1 0 0 0 0 0 0 0 0 0
Neighs:          76032 ave       76032 max       76032 min
Histogram: 1 0 0 0 0 0 0 0 0 0
FullNghs:       152064 ave      152064 max      152064 min
Histogram: 1 0 0 0 0 0 0 0 0 0

Total # of neighbors = 152064
Ave neighs/atom = 176
Neighbor list builds = 0
Dangerous builds = 0
Minimized PE/atom: -4.52999501031784 eV/atom
=== STAGE 2: NPT Equilibration at 200 K ===
No /omp style for force computation currently active
Setting up Verlet run ...
  Unit style    : metal
  Current step  : 0
  Time step     : 0.002
Per MPI rank memory allocation (min/avg/max) = 20.14 | 20.14 | 20.14 Mbytes
   Step          Temp          PotEng         KinEng         TotEng         Press          Volume           Lx             Ly             Lz      
         0   200           -3913.9157      22.310301     -3891.6054     -18620.991      10572.674      21.948         21.948         21.948       
       500   204.83574     -3897.86        22.849735     -3875.0103      3967.7953      10497.36       21.89576       21.89576       21.89576     
      1000   192.38407     -3898.4153      21.460732     -3876.9545     -3856.1555      10551.568      21.933386      21.933386      21.933386    
      1500   189.54019     -3897.3873      21.143493     -3876.2438      1614.3427      10504.298      21.900583      21.900583      21.900583    
      2000   207.67894     -3897.8402      23.166899     -3874.6733      352.06887      10517.104      21.90948       21.90948       21.90948     
      2500   200.54911     -3896.9085      22.371555     -3874.537       696.07216      10512.012      21.905943      21.905943      21.905943    
      3000   212.43614     -3899.3235      23.697571     -3875.6259     -1533.6551      10527.947      21.917006      21.917006      21.917006    
      3500   191.17696     -3897.8093      21.326078     -3876.4832     -2901.9094      10549.475      21.931935      21.931935      21.931935    
      4000   193.53851     -3898.8395      21.589512     -3877.25       -88.08567       10521.581      21.912588      21.912588      21.912588    
      4500   197.69078     -3897.4785      22.052704     -3875.4258      1497.0087      10521.484      21.912521      21.912521      21.912521    
      5000   199.6305      -3897.3941      22.269083     -3875.1251      48.701785      10520.313      21.911707      21.911707      21.911707    
      5500   192.86113     -3897.94        21.513949     -3876.4261     -833.07467      10538.765      21.924511      21.924511      21.924511    
      6000   196.65826     -3899.1957      21.937525     -3877.2582     -235.25445      10525.88       21.915572      21.915572      21.915572    
      6500   197.52998     -3898.4579      22.034767     -3876.4232      1618.386       10512.861      21.906532      21.906532      21.906532    
      7000   199.57567     -3897.8452      22.262966     -3875.5822     -595.3726       10537.842      21.923871      21.923871      21.923871    
      7500   217.21556     -3899.9493      24.230722     -3875.7186      2367.4674      10493.18       21.892853      21.892853      21.892853    
      8000   187.55972     -3898.9388      20.922569     -3878.0163     -1345.8664      10536.595      21.923006      21.923006      21.923006    
      8500   200.46552     -3898.2871      22.362231     -3875.9249     -2348.9799      10543.03       21.927468      21.927468      21.927468    
      9000   201.41829     -3898.0273      22.468513     -3875.5588      554.99208      10517.868      21.91001       21.91001       21.91001     
      9500   198.77719     -3896.8652      22.173895     -3874.6913      1643.1325      10507.873      21.903067      21.903067      21.903067    
     10000   200.6322      -3898.1505      22.380824     -3875.7697      393.49727      10523.796      21.914125      21.914125      21.914125    
     10500   196.68587     -3898.5698      21.940605     -3876.6292      1999.0995      10506.451      21.902079      21.902079      21.902079    
     11000   196.11842     -3897.9843      21.877305     -3876.107      -763.78411      10526.276      21.915846      21.915846      21.915846    
     11500   193.99834     -3898.3624      21.640807     -3876.7216     -3669.5932      10552.42       21.933975      21.933975      21.933975    
     12000   197.18018     -3899.1068      21.995746     -3877.1111     -571.29971      10520.633      21.91193       21.91193       21.91193     
     12500   196.09662     -3899.0701      21.874873     -3877.1952      3882.5899      10510.912      21.905179      21.905179      21.905179    
     13000   198.02031     -3898.5619      22.089464     -3876.4724      461.67081      10524.585      21.914673      21.914673      21.914673    
     13500   204.1654      -3898.5531      22.774958     -3875.7782      1741.7355      10511.158      21.90535       21.90535       21.90535     
     14000   211.99746     -3899.3629      23.648636     -3875.7143      18.344839      10524.048      21.9143        21.9143        21.9143      
     14500   195.75563     -3899.4949      21.836836     -3877.6581     -3998.5748      10545.609      21.929255      21.929255      21.929255    
     15000   198.16404     -3899.3057      22.105497     -3877.2002      4840.0342      10482.976      21.885755      21.885755      21.885755    
     15500   197.63177     -3898.9883      22.046121     -3876.9422     -4656.2401      10555.3        21.935971      21.935971      21.935971    
     16000   194.61932     -3897.1012      21.710078     -3875.3911     -1242.5732      10523.47       21.913899      21.913899      21.913899    
     16500   198.1174      -3898.6165      22.100294     -3876.5162     -406.10991      10520.222      21.911644      21.911644      21.911644    
     17000   197.21796     -3899.0354      21.999961     -3877.0354     -4710.784       10545.748      21.929352      21.929352      21.929352    
     17500   199.57359     -3899.6363      22.262734     -3877.3735      439.58112      10518.275      21.910292      21.910292      21.910292    
     18000   200.21139     -3898.8696      22.333881     -3876.5357     -795.90706      10523.324      21.913798      21.913798      21.913798    
     18500   199.79155     -3898.2251      22.287048     -3875.938      -1374.3147      10534.232      21.921366      21.921366      21.921366    
     19000   200.45301     -3898.7097      22.360835     -3876.3488      4406.8064      10495.459      21.894438      21.894438      21.894438    
     19500   192.49722     -3898.8517      21.473354     -3877.3783     -1879.8153      10533.934      21.92116       21.92116       21.92116     
     20000   198.70299     -3898.7599      22.165617     -3876.5943      426.05444      10518.749      21.910622      21.910622      21.910622    
Loop time of 506.527 on 8 procs for 20000 steps with 864 atoms

Performance: 6.823 ns/day, 3.518 hours/ns, 39.485 timesteps/s, 34.115 katom-step/s
96.2% CPU use with 1 MPI tasks x 8 OpenMP threads

MPI task timing breakdown:
Section |  min time  |  avg time  |  max time  |%varavg| %total
---------------------------------------------------------------
Pair    | 481.88     | 481.88     | 481.88     |   0.0 | 95.13
Neigh   | 0          | 0          | 0          |   0.0 |  0.00
Comm    | 0.46977    | 0.46977    | 0.46977    |   0.0 |  0.09
Output  | 0.003887   | 0.003887   | 0.003887   |   0.0 |  0.00
Modify  | 24.09      | 24.09      | 24.09      |   0.0 |  4.76
Other   |            | 0.08282    |            |       |  0.02

Nlocal:            864 ave         864 max         864 min
Histogram: 1 0 0 0 0 0 0 0 0 0
Nghost:           3767 ave        3767 max        3767 min
Histogram: 1 0 0 0 0 0 0 0 0 0
Neighs:          76182 ave       76182 max       76182 min
Histogram: 1 0 0 0 0 0 0 0 0 0
FullNghs:       152364 ave      152364 max      152364 min
Histogram: 1 0 0 0 0 0 0 0 0 0

Total # of neighbors = 152364
Ave neighs/atom = 176.34722
Neighbor list builds = 0
Dangerous builds = 0
=== STAGE 3: NPT Production at 200 K ===
No /omp style for force computation currently active
Setting up Verlet run ...
  Unit style    : metal
  Current step  : 0
  Time step     : 0.001
Per MPI rank memory allocation (min/avg/max) = 20.14 | 20.14 | 20.14 Mbytes
   Step          Temp          PotEng         KinEng         TotEng         Press          Volume           Lx             Ly             Lz      
         0   198.70299     -3898.7599      22.165617     -3876.5943      426.05444      10518.749      21.910622      21.910622      21.910622    
       500   195.5455      -3898.4125      21.813395     -3876.5991      2559.9528      10516.203      21.908854      21.908854      21.908854    
      1000   213.85213     -3897.864       23.855527     -3874.0085     -772.00337      10540.061      21.925409      21.925409      21.925409    
      1500   203.35743     -3898.1397      22.684827     -3875.4549     -1057.7014      10530.391      21.918702      21.918702      21.918702    
      2000   196.43478     -3898.631       21.912595     -3876.7184      2396.689       10498.605      21.896626      21.896626      21.896626    
      2500   192.75022     -3897.9799      21.501577     -3876.4783     -869.61846      10534.668      21.921669      21.921669      21.921669    
      3000   209.43421     -3899.5398      23.362701     -3876.1771      757.85511      10508.031      21.903177      21.903177      21.903177    
      3500   212.67654     -3898.4399      23.724389     -3874.7155     -798.84575      10525.03       21.914982      21.914982      21.914982    
      4000   195.90207     -3897.1198      21.853171     -3875.2666     -1772.1275      10537.848      21.923874      21.923874      21.923874    
      4500   195.47964     -3898.4076      21.806048     -3876.6016      2661.7821      10507.276      21.902653      21.902653      21.902653    
      5000   205.3329      -3898.9753      22.905194     -3876.0701      487.4297       10515.431      21.908317      21.908317      21.908317    
      5500   206.65835     -3898.9411      23.05305      -3875.8881      942.20942      10511.963      21.905909      21.905909      21.905909    
      6000   191.20832     -3899.4922      21.329576     -3878.1626     -3107.4735      10537.237      21.923451      21.923451      21.923451    
      6500   190.736       -3898.7         21.276888     -3877.4231      3387.2464      10493.021      21.892743      21.892743      21.892743    
      7000   198.16639     -3898.2622      22.105759     -3876.1564     -507.66169      10538.067      21.924027      21.924027      21.924027    
      7500   198.68047     -3899.4763      22.163105     -3877.3132     -1344.3987      10533.224      21.920667      21.920667      21.920667    
      8000   201.96529     -3899.5839      22.529532     -3877.0544      1306.1922      10506.703      21.902255      21.902255      21.902255    
      8500   206.07312     -3899.3761      22.987767     -3876.3884      939.75214      10511.96       21.905907      21.905907      21.905907    
      9000   201.45416     -3898.8389      22.472514     -3876.3663      1854.3945      10519.319      21.911017      21.911017      21.911017    
      9500   198.94104     -3898.2158      22.192172     -3876.0237      4509.1143      10488.137      21.889346      21.889346      21.889346    
     10000   193.81751     -3898.8004      21.620635     -3877.1798     -3065.3007      10545.132      21.928925      21.928925      21.928925    
     10500   200.86785     -3900.2712      22.407111     -3877.8641      758.59604      10510.091      21.904608      21.904608      21.904608    
     11000   206.2544      -3900.1135      23.007988     -3877.1055     -3968.2013      10555.341      21.935999      21.935999      21.935999    
     11500   202.50059     -3899.0318      22.589245     -3876.4425     -623.37264      10528.259      21.917222      21.917222      21.917222    
     12000   205.03287     -3897.9968      22.871725     -3875.1251     -1348.9659      10535.56       21.922288      21.922288      21.922288    
     12500   208.0604      -3898.2776      23.20945      -3875.0681      565.10407      10520.88       21.912101      21.912101      21.912101    
     13000   197.72821     -3898.1306      22.05688      -3876.0737     -1452.4622      10538.322      21.924203      21.924203      21.924203    
     13500   199.9901      -3899.2604      22.309196     -3876.9512     -1056.9319      10528.831      21.917619      21.917619      21.917619    
     14000   199.5427      -3898.262       22.259289     -3876.0027      814.954        10515.404      21.908299      21.908299      21.908299    
     14500   197.78294     -3898.0612      22.062985     -3875.9982     -564.94164      10516.334      21.908944      21.908944      21.908944    
     15000   195.20831     -3898.9898      21.775781     -3877.214       1083.1464      10517.107      21.909481      21.909481      21.909481    
     15500   205.2257      -3899.0958      22.893236     -3876.2026      699.76431      10512.975      21.906612      21.906612      21.906612    
     16000   208.97624     -3898.1179      23.311614     -3874.8063     -214.76729      10531.608      21.919546      21.919546      21.919546    
     16500   205.79741     -3898.4367      22.957011     -3875.4797      608.85115      10523.119      21.913656      21.913656      21.913656    
     17000   202.88737     -3899.0516      22.632391     -3876.4192     -912.64143      10539.363      21.924926      21.924926      21.924926    
     17500   214.26709     -3900.0132      23.901816     -3876.1114      2707.4256      10503.954      21.900344      21.900344      21.900344    
     18000   199.25645     -3898.4746      22.227357     -3876.2472      161.03475      10521.26       21.912365      21.912365      21.912365    
     18500   198.0064      -3898.2147      22.087912     -3876.1268      2346.2701      10508.888      21.903773      21.903773      21.903773    
     19000   203.81721     -3899.5432      22.736116     -3876.8071      1858.4594      10523.615      21.914         21.914         21.914       
     19500   197.88668     -3898.7564      22.074557     -3876.6818     -112.3007       10522.159      21.912989      21.912989      21.912989    
     20000   204.51564     -3898.1618      22.814028     -3875.3478     -1645.8165      10541.397      21.926335      21.926335      21.926335    
     20500   197.35057     -3897.7341      22.014753     -3875.7194      3146.247       10502.531      21.899355      21.899355      21.899355    
     21000   195.8436      -3898.8956      21.846648     -3877.0489     -4071.9247      10554.245      21.93524       21.93524       21.93524     
     21500   197.47715     -3899.6396      22.028873     -3877.6107     -270.52608      10519.429      21.911094      21.911094      21.911094    
     22000   187.27955     -3898.8529      20.891316     -3877.9616     -2446.308       10548.1        21.930982      21.930982      21.930982    
     22500   203.54753     -3898.8995      22.706033     -3876.1934      321.25137      10521.921      21.912824      21.912824      21.912824    
     23000   195.56804     -3897.5455      21.815909     -3875.7296      5084.4713      10487.446      21.888865      21.888865      21.888865    
     23500   198.727       -3898.8013      22.168296     -3876.633      -773.08487      10533.204      21.920653      21.920653      21.920653    
     24000   200.36717     -3897.7572      22.351259     -3875.4059      2253.5735      10508.491      21.903497      21.903497      21.903497    
     24500   208.16654     -3897.6881      23.221291     -3874.4668     -864.80858      10530.746      21.918948      21.918948      21.918948    
     25000   204.1151      -3899.4329      22.769347     -3876.6635      1939.5468      10520.746      21.912008      21.912008      21.912008    
     25500   200.23187     -3899.0691      22.336166     -3876.7329      1580.8184      10508.04       21.903183      21.903183      21.903183    
     26000   198.36337     -3898.8921      22.127733     -3876.7644     -3029.0089      10540.335      21.925599      21.925599      21.925599    
     26500   198.42305     -3898.353       22.13439      -3876.2186      2054.4291      10501.844      21.898878      21.898878      21.898878    
     27000   196.24734     -3897.6809      21.891686     -3875.7892      738.26973      10508.444      21.903464      21.903464      21.903464    
     27500   193.89537     -3900.0653      21.62932      -3878.4359      893.19443      10510.205      21.904688      21.904688      21.904688    
     28000   196.4141      -3898.9678      21.910289     -3877.0576      634.82877      10506.556      21.902153      21.902153      21.902153    
     28500   204.33564     -3898.9734      22.793948     -3876.1795     -1296.9344      10538.707      21.92447       21.92447       21.92447     
     29000   197.9516      -3897.5098      22.081799     -3875.428       1972.947       10520.545      21.911869      21.911869      21.911869    
     29500   207.11917     -3899.6052      23.104455     -3876.5008     -417.88519      10531.886      21.919739      21.919739      21.919739    
     30000   192.72733     -3899.2054      21.499024     -3877.7063     -692.41962      10527.342      21.916586      21.916586      21.916586    
     30500   200.52573     -3899.5481      22.368947     -3877.1791     -895.6991       10540.81       21.925928      21.925928      21.925928    
     31000   203.32537     -3899.5408      22.681251     -3876.8596     -964.87852      10531.932      21.919771      21.919771      21.919771    
     31500   208.08313     -3899.3943      23.211986     -3876.1823      834.57587      10516.7        21.909199      21.909199      21.909199    
     32000   197.28615     -3898.4523      22.007567     -3876.4447      31.314672      10521.479      21.912517      21.912517      21.912517    
     32500   195.38865     -3899.3583      21.795898     -3877.5624     -1476.0124      10531.271      21.919312      21.919312      21.919312    
     33000   196.03604     -3899.0886      21.868116     -3877.2205      679.6285       10518.464      21.910423      21.910423      21.910423    
     33500   203.13834     -3898.5151      22.660388     -3875.8547      1306.9856      10512.705      21.906424      21.906424      21.906424    
     34000   200.90884     -3898.3064      22.411684     -3875.8947     -2454.6014      10551.926      21.933634      21.933634      21.933634    
     34500   199.96638     -3898.2067      22.30655      -3875.9001      1133.3516      10527.768      21.916882      21.916882      21.916882    
     35000   198.13959     -3898.9287      22.102769     -3876.8259      2216.6575      10517.017      21.909419      21.909419      21.909419    
     35500   197.021       -3898.6949      21.977989     -3876.7169     -457.66447      10535.204      21.922041      21.922041      21.922041    
     36000   200.30993     -3898.5191      22.344874     -3876.1743      496.86433      10517.706      21.909897      21.909897      21.909897    
     36500   212.85972     -3899.5028      23.744822     -3875.758      -1281.5645      10526.158      21.915765      21.915765      21.915765    
     37000   191.79322     -3899.4503      21.394822     -3878.0555     -1583.6417      10532.317      21.920038      21.920038      21.920038    
     37500   185.29386     -3898.2848      20.669809     -3877.615       1370.8611      10512.164      21.906048      21.906048      21.906048    
     38000   196.30631     -3898.917       21.898264     -3877.0188     -370.30737      10525.075      21.915013      21.915013      21.915013    
     38500   201.11428     -3898.7724      22.434601     -3876.3378      2004.3297      10511.395      21.905515      21.905515      21.905515    
     39000   200.98951     -3896.2911      22.420682     -3873.8704     -577.48734      10538.392      21.924252      21.924252      21.924252    
     39500   201.64159     -3898.4321      22.493423     -3875.9387     -699.87812      10528.429      21.917341      21.917341      21.917341    
     40000   197.2885      -3899.1026      22.007829     -3877.0948      2262.9054      10513.619      21.907059      21.907059      21.907059    
     40500   191.28747     -3898.7485      21.338405     -3877.4101     -3748.5659      10549.198      21.931743      21.931743      21.931743    
     41000   200.33456     -3898.6894      22.347622     -3876.3418      913.14951      10510.899      21.90517       21.90517       21.90517     
     41500   200.98542     -3898.2293      22.420226     -3875.8091     -2911.6787      10552.5        21.934031      21.934031      21.934031    
     42000   194.74077     -3898.0428      21.723626     -3876.3192     -805.05838      10534.729      21.921712      21.921712      21.921712    
     42500   202.3626      -3899.4179      22.573852     -3876.8441     -261.7064       10531.1        21.919194      21.919194      21.919194    
     43000   195.59246     -3898.6096      21.818633     -3876.791       2854.5929      10492.962      21.892702      21.892702      21.892702    
     43500   207.54674     -3898.5451      23.152151     -3875.3929     -953.65866      10531.651      21.919576      21.919576      21.919576    
     44000   209.51114     -3897.7984      23.371284     -3874.4271      1413.0274      10516.781      21.909255      21.909255      21.909255    
     44500   197.00752     -3897.6721      21.976485     -3875.6956      750.0077       10525.16       21.915072      21.915072      21.915072    
     45000   198.31716     -3898.736       22.122577     -3876.6134      88.718865      10522.473      21.913207      21.913207      21.913207    
     45500   196.44349     -3899.2374      21.913567     -3877.3238      493.46827      10522.188      21.913009      21.913009      21.913009    
     46000   191.95379     -3899.1241      21.412735     -3877.7113      3670.8355      10495.798      21.894674      21.894674      21.894674    
     46500   204.25043     -3899.0935      22.784443     -3876.3091     -559.78107      10524.332      21.914497      21.914497      21.914497    
     47000   202.79245     -3898.7009      22.621803     -3876.0791      3236.1599      10496.926      21.895458      21.895458      21.895458    
     47500   195.35602     -3899.1297      21.792258     -3877.3374     -1210.0721      10541.101      21.926131      21.926131      21.926131    
     48000   194.0317      -3899.4149      21.644528     -3877.7704     -4488.0611      10558.508      21.938193      21.938193      21.938193    
     48500   196.8488      -3898.4121      21.95878      -3876.4534      2785.3694      10508.686      21.903632      21.903632      21.903632    
     49000   194.75437     -3898.0757      21.725143     -3876.3505     -543.99087      10525.205      21.915103      21.915103      21.915103    
     49500   201.11725     -3898.5961      22.434932     -3876.1612      264.84328      10522.358      21.913127      21.913127      21.913127    
     50000   191.11851     -3898.2349      21.319558     -3876.9154      837.5791       10515.25       21.908192      21.908192      21.908192    
Loop time of 1264.2 on 8 procs for 50000 steps with 864 atoms

Performance: 3.417 ns/day, 7.023 hours/ns, 39.551 timesteps/s, 34.172 katom-step/s
96.4% CPU use with 1 MPI tasks x 8 OpenMP threads

MPI task timing breakdown:
Section |  min time  |  avg time  |  max time  |%varavg| %total
---------------------------------------------------------------
Pair    | 1202.6     | 1202.6     | 1202.6     |   0.0 | 95.13
Neigh   | 0          | 0          | 0          |   0.0 |  0.00
Comm    | 1.1666     | 1.1666     | 1.1666     |   0.0 |  0.09
Output  | 0.009415   | 0.009415   | 0.009415   |   0.0 |  0.00
Modify  | 60.2       | 60.2       | 60.2       |   0.0 |  4.76
Other   |            | 0.2008     |            |       |  0.02

Nlocal:            864 ave         864 max         864 min
Histogram: 1 0 0 0 0 0 0 0 0 0
Nghost:           3761 ave        3761 max        3761 min
Histogram: 1 0 0 0 0 0 0 0 0 0
Neighs:          76126 ave       76126 max       76126 min
Histogram: 1 0 0 0 0 0 0 0 0 0
FullNghs:       152252 ave      152252 max      152252 min
Histogram: 1 0 0 0 0 0 0 0 0 0

Total # of neighbors = 152252
Ave neighs/atom = 176.21759
Neighbor list builds = 0
Dangerous builds = 0

=== FINAL RESULTS: FCC at 200 K ===
Atoms: 864 | PE/atom: -4.51245967507034 eV/atom
WARNING: Detected non-ASCII characters in input. Will try to continue by replacing with ASCII equivalents where known. (src/input.cpp:479)
Volume: 10515.2502703847 …³ | Area: 479.96887565667 ²
==========================================
FCC 200 864 -4.51245967507034 10515.2502703847 21.9081919759863 21.9081919759863 21.9081919759863 479.96887565667
Simulation complete!
Total wall time: 0:29:31
