LAMMPS (10 Sep 2025)
  using 8 OpenMP thread(s) per MPI task
Loaded 1 plugins from C:\Users\kumar\AppData\Local\LAMMPS 64-bit 10Sep2025\plugins
using multi-threaded neighbor list subroutines
Reading data file ...
  orthogonal box = (0 0 0) to (15.51958 26.8807 25.343367)
  1 by 1 by 1 MPI processor grid
  reading atoms ...
  432 atoms
  read_data CPU = 0.004 seconds
=== STAGE 1: Energy Minimization ===
Switching to 'neigh_modify every 1 delay 0 check yes' setting during minimization
No /omp style for force computation currently active
Neighbor list info ...
  update: every = 1 steps, delay = 0 steps, check = yes
  max neighbors/atom: 4000, page size: 100000
  master list distance cutoff = 8
  ghost atom cutoff = 8
  binsize = 4, bins = 4 7 7
  2 neighbor lists, perpetual/occasional/extra = 2 0 0
  (1) pair meam, perpetual
      attributes: full, newton on, omp
      pair build: full/bin/atomonly/omp
      stencil: full/bin/3d
      bin: standard
  (2) pair meam, perpetual, half/full from (1)
      attributes: half, newton on, omp
      pair build: halffull/newton/omp
      stencil: none
      bin: none
Setting up cg style minimization ...
  Unit style    : metal
  Current step  : 0
Per MPI rank memory allocation (min/avg/max) = 19.38 | 19.38 | 19.38 Mbytes
   Step          Temp          PotEng         KinEng         TotEng         Press          Volume           Lx             Ly             Lz      
         0   0             -1221.4791      0             -1221.4791     -94553.458      10572.674      15.51958       26.8807        25.343367    
        92   0             -1588.1895      0             -1588.1895     -62251.558      10572.674      15.51958       26.8807        25.343367    
Loop time of 1.25166 on 8 procs for 92 steps with 432 atoms

96.1% CPU use with 1 MPI tasks x 8 OpenMP threads

Minimization stats:
  Stopping criterion = energy tolerance
  Energy initial, next-to-last, final = 
     -1221.47912276283  -1588.18839688745  -1588.18946607866
  Force two-norm initial, final = 31.418943 12.350046
  Force max component initial, final = 4.0253207 4.2297527
  Final line search alpha, max atom move = 0.0013397412 0.0056667738
  Iterations, force evaluations = 92 191

MPI task timing breakdown:
Section |  min time  |  avg time  |  max time  |%varavg| %total
---------------------------------------------------------------
Pair    | 1.2169     | 1.2169     | 1.2169     |   0.0 | 97.22
Neigh   | 0.001722   | 0.001722   | 0.001722   |   0.0 |  0.14
Comm    | 0.002348   | 0.002348   | 0.002348   |   0.0 |  0.19
Output  | 0          | 0          | 0          |   0.0 |  0.00
Modify  | 0.027077   | 0.027077   | 0.027077   |   0.0 |  2.16
Other   |            | 0.003589   |            |       |  0.29

Nlocal:            432 ave         432 max         432 min
Histogram: 1 0 0 0 0 0 0 0 0 0
Nghost:           1784 ave        1784 max        1784 min
Histogram: 1 0 0 0 0 0 0 0 0 0
Neighs:          18703 ave       18703 max       18703 min
Histogram: 1 0 0 0 0 0 0 0 0 0
FullNghs:        37406 ave       37406 max       37406 min
Histogram: 1 0 0 0 0 0 0 0 0 0

Total # of neighbors = 37406
Ave neighs/atom = 86.587963
Neighbor list builds = 3
Dangerous builds = 0
Minimized PE/atom: -3.67636450481172 eV/atom
=== STAGE 2: NPT Equilibration at 650 K ===
No /omp style for force computation currently active
Setting up Verlet run ...
  Unit style    : metal
  Current step  : 0
  Time step     : 0.002
Per MPI rank memory allocation (min/avg/max) = 18.27 | 18.27 | 18.27 Mbytes
   Step          Temp          PotEng         KinEng         TotEng         Press          Volume           Lx             Ly             Lz      
         0   650           -1588.1895      36.21223      -1551.9772     -58593.172      10572.674      15.51958       26.8807        25.343367    
       500   1131.7942     -1815.5509      63.053523     -1752.4974     -3333.4259      6441.8488      13.156949      22.788503      21.485207    
      1000   695.68993     -1895.6199      38.757667     -1856.8623     -203.61134      5721.5787      12.647081      21.905387      20.652596    
      1500   684.67921     -1915.0903      38.144247     -1876.946      -632.34264      5617.4319      12.569874      21.771661      20.526519    
      2000   703.50919     -1923.1611      39.193287     -1883.9678     -2105.4562      5617.6455      12.570034      21.771937      20.526779    
      2500   617.69801     -1931.5136      34.412649     -1897.1009      924.49224      5550.2018      12.519527      21.684457      20.444302    
      3000   614.72718     -1932.413       34.247141     -1898.1659     -2608.749       5559.5564      12.526557      21.696633      20.455782    
      3500   655.85953     -1929.7337      36.53867      -1893.195      -1680.6925      5588.4529      12.548222      21.734158      20.491161    
      4000   658.4723      -1930.1053      36.684231     -1893.421       1874.5909      5560.9407      12.527597      21.698434      20.457479    
      4500   617.83614     -1937.5128      34.420345     -1903.0925      431.34913      5528.8673      12.503465      21.656637      20.418073    
      5000   670.42537     -1941.8997      37.35015      -1904.5496     -761.97759      5527.4274      12.50238       21.654757      20.416301    
      5500   667.43361     -1942.1798      37.183476     -1904.9963      1714.4941      5514.9479      12.492964      21.638448      20.400924    
      6000   691.80237     -1944.1665      38.541087     -1905.6254      2580.083       5510.724       12.489773      21.632922      20.395714    
      6500   626.96579     -1947.4565      34.928968     -1912.5276      3633.2964      5471.6564      12.460188      21.581679      20.347402    
      7000   651.95733     -1947.3198      36.321275     -1910.9986     -3072.9101      5484.8095      12.470165      21.598959      20.363693    
      7500   638.40235     -1949.4337      35.566112     -1913.8676     -10440.61       5525.3039      12.500778      21.651983      20.413686    
      8000   630.04979     -1951.8855      35.100781     -1916.7847     -4350.7013      5485.2994      12.470536      21.599602      20.3643      
      8500   656.66249     -1953.1605      36.583404     -1916.5771      4524.0644      5433.2951      12.431001      21.531125      20.29974     
      9000   664.54221     -1952.5526      37.022393     -1915.5302     -5181.6823      5483.9168      12.469488      21.597787      20.362589    
      9500   633.03141     -1953.124       35.26689      -1917.8571     -4210.4708      5471.6876      12.460212      21.58172       20.347441    
     10000   627.92691     -1955.8443      34.982513     -1920.8618     -2612.2812      5460.3743      12.451619      21.566836      20.333408    
     10500   682.09336     -1958.1913      38.000187     -1920.1912     -6831.3766      5484.8444      12.470191      21.599004      20.363737    
     11000   612.24041     -1959.5162      34.108601     -1925.4076     -2042.0756      5450.8398      12.444367      21.554276      20.321566    
     11500   642.99927     -1960.1874      35.822211     -1924.3652      2406.8503      5444.9082      12.439851      21.546455      20.314192    
     12000   646.33222     -1957.4147      36.007893     -1921.4068     -3374.2467      5478.9604      12.46573       21.591278      20.356452    
     12500   693.14992     -1957.2659      38.61616      -1918.6498     -1900.1439      5455.3522      12.4478        21.560222      20.327172    
     13000   622.83734     -1960.7156      34.698967     -1926.0166      2549.7611      5429.7843      12.428323      21.526487      20.295366    
     13500   667.85769     -1961.147       37.207102     -1923.9399     -4506.6928      5459.3083      12.450808      21.565432      20.332085    
     14000   661.92819     -1961.3241      36.876763     -1924.4473     -8570.4418      5484.7167      12.470094      21.598837      20.363579    
     14500   689.58372     -1964.7641      38.417483     -1926.3466      7710.2725      5404.9828      12.409371      21.493661      20.264418    
     15000   685.5395      -1963.3485      38.192175     -1925.1564      5756.6208      5397.5489      12.403679      21.483803      20.255124    
     15500   629.71905     -1964.391       35.082355     -1929.3087     -5339.7306      5457.9807      12.449799      21.563684      20.330436    
     16000   628.79674     -1965.9767      35.030972     -1930.9457      3197.6599      5425.3457      12.424935      21.52062       20.289835    
     16500   673.05275     -1967.6562      37.496524     -1930.1597     -3950.6281      5424.1821      12.424047      21.519081      20.288384    
     17000   667.09275     -1968.5328      37.164486     -1931.3683      2723.7455      5407.3883      12.411212      21.496849      20.267424    
     17500   620.79322     -1968.2175      34.585087     -1933.6324     -4747.0811      5434.4574      12.431887      21.53266       20.301187    
     18000   621.43802     -1970.1654      34.62101      -1935.5444     -7377.7544      5438.616       12.435058      21.538151      20.306364    
     18500   687.11951     -1969.6335      38.280199     -1931.3533     -5044.7956      5430.0908      12.428557      21.526892      20.295748    
     19000   653.93281     -1969.5518      36.431331     -1933.1205      3878.2577      5387.0026      12.395596      21.469801      20.241923    
     19500   673.24287     -1970.0895      37.507116     -1932.5824      15.162246      5408.4308      12.412009      21.498231      20.268726    
     20000   647.08292     -1970.7002      36.049716     -1934.6504     -1567.0627      5412.8169      12.415364      21.504041      20.274204    
Loop time of 262.11 on 8 procs for 20000 steps with 432 atoms

Performance: 13.185 ns/day, 1.820 hours/ns, 76.304 timesteps/s, 32.963 katom-step/s
96.2% CPU use with 1 MPI tasks x 8 OpenMP threads

MPI task timing breakdown:
Section |  min time  |  avg time  |  max time  |%varavg| %total
---------------------------------------------------------------
Pair    | 238.81     | 238.81     | 238.81     |   0.0 | 91.11
Neigh   | 0.035324   | 0.035324   | 0.035324   |   0.0 |  0.01
Comm    | 0.3046     | 0.3046     | 0.3046     |   0.0 |  0.12
Output  | 0.004216   | 0.004216   | 0.004216   |   0.0 |  0.00
Modify  | 22.892     | 22.892     | 22.892     |   0.0 |  8.73
Other   |            | 0.06715    |            |       |  0.03

Nlocal:            432 ave         432 max         432 min
Histogram: 1 0 0 0 0 0 0 0 0 0
Nghost:           2606 ave        2606 max        2606 min
Histogram: 1 0 0 0 0 0 0 0 0 0
Neighs:          36286 ave       36286 max       36286 min
Histogram: 1 0 0 0 0 0 0 0 0 0
FullNghs:        72572 ave       72572 max       72572 min
Histogram: 1 0 0 0 0 0 0 0 0 0

Total # of neighbors = 72572
Ave neighs/atom = 167.99074
Neighbor list builds = 41
Dangerous builds = 0
=== STAGE 3: NPT Production at 650 K ===
No /omp style for force computation currently active
Setting up Verlet run ...
  Unit style    : metal
  Current step  : 0
  Time step     : 0.001
Per MPI rank memory allocation (min/avg/max) = 18.68 | 18.68 | 18.68 Mbytes
   Step          Temp          PotEng         KinEng         TotEng         Press          Volume           Lx             Ly             Lz      
         0   647.08292     -1970.7002      36.049716     -1934.6504     -1567.0627      5412.8169      12.415364      21.504041      20.274204    
       500   665.73935     -1970.2177      37.089087     -1933.1286      544.37023      5409.8937      12.413128      21.500169      20.270554    
      1000   646.17582     -1969.8869      35.99918      -1933.8877      3606.2492      5394.0863      12.401026      21.479208      20.250791    
      1500   677.63165     -1975.0392      37.75162      -1937.2876     -5809.9759      5408.1358      12.411784      21.49784       20.268358    
      2000   645.59008     -1972.9858      35.966548     -1937.0192     -3567.0228      5410.6147      12.41368       21.501124      20.271454    
      2500   637.67453     -1972.9798      35.525564     -1937.4543     -4353.6513      5417.6594      12.419065      21.510452      20.280248    
      3000   634.77209     -1974.9993      35.363866     -1939.6355     -3484.8162      5397.3263      12.403509      21.483508      20.254845    
      3500   632.92996     -1973.8991      35.261238     -1938.6379      2485.251       5388.4754      12.396725      21.471758      20.243767    
      4000   697.22062     -1975.1097      38.842943     -1936.2667     -848.67272      5409.5923      12.412898      21.49977       20.270177    
      4500   657.64641     -1970.6094      36.638219     -1933.9711     -207.43146      5408.5507      12.412101      21.49839       20.268876    
      5000   669.53        -1969.277       37.300268     -1931.9767     -5462.2961      5425.2377      12.424853      21.520477      20.2897      
      5500   615.20772     -1971.572       34.273913     -1937.2981     -6883.6355      5434.8743      12.432205      21.533211      20.301706    
      6000   658.66273     -1969.6976      36.69484      -1933.0028     -7330.9549      5409.7621      12.413028      21.499995      20.270389    
      6500   655.91432     -1970.2275      36.541723     -1933.6858     -2641.6003      5408.554       12.412104      21.498394      20.26888     
      7000   665.23096     -1970.5175      37.060764     -1933.4567      797.30083      5390.4115      12.39821       21.474329      20.246192    
      7500   655.68076     -1972.4371      36.528711     -1935.9084      2811.9181      5365.3758      12.378985      21.441032      20.214799    
      8000   614.81388     -1971.9895      34.251972     -1937.7375     -2599.8645      5414.4601      12.41662       21.506217      20.276256    
      8500   734.3987      -1971.2386      40.914176     -1930.3244     -9906.25        5448.2797      12.442418      21.550901      20.318384    
      9000   611.64347     -1973.8103      34.075344     -1939.7349     -5201.9557      5411.8524      12.414626      21.502763      20.273       
      9500   671.00256     -1970.8603      37.382306     -1933.478      -1857.2701      5401.5083      12.406712      21.489055      20.260075    
     10000   683.10108     -1970.479       38.056328     -1932.4227     -1786.9722      5416.6616      12.418303      21.509131      20.279003    
     10500   617.19423     -1969.535       34.384583     -1935.1504     -4071.1287      5423.5819      12.423589      21.518287      20.287636    
     11000   613.38792     -1972.5489      34.17253      -1938.3763     -6586.675       5404.5875      12.409069      21.493137      20.263924    
     11500   628.98178     -1972.5784      35.041281     -1937.5371     -1582.7339      5380.2505      12.390414      21.460827      20.233462    
     12000   656.59913     -1971.3139      36.579875     -1934.7341      785.23934      5417.632       12.419044      21.510415      20.280214    
     12500   648.50341     -1972.8327      36.128853     -1936.7038      331.59673      5397.3899      12.403558      21.483592      20.254925    
     13000   622.75123     -1970.2947      34.69417      -1935.6005      1772.1         5384.1859      12.393435      21.466059      20.238394    
     13500   658.91503     -1969.7126      36.708896     -1933.0037      1506.7183      5401.3296      12.406575      21.488818      20.259852    
     14000   643.29907     -1969.6515      35.838913     -1933.8126     -4927.3134      5424.7591      12.424488      21.519844      20.289103    
     14500   626.6518      -1970.9044      34.911475     -1935.9929     -4135.6172      5414.1586      12.416389      21.505817      20.275879    
     15000   623.3901      -1971.7816      34.729762     -1937.0518     -8896.6069      5434.9518      12.432264      21.533313      20.301803    
     15500   656.43127     -1970.2374      36.570523     -1933.6669     -1580.1364      5420.5956      12.421308      21.514337      20.283911    
     16000   715.34874     -1971.1859      39.852881     -1931.3331      3945.8034      5400.3962      12.40586       21.48758       20.258685    
     16500   640.4715      -1973.0375      35.681386     -1937.3561     -3505.747       5421.3889      12.421914      21.515386      20.284901    
     17000   650.32982     -1974.7039      36.230604     -1938.4733     -131.65685      5400.9551      12.406288      21.488321      20.259383    
     17500   719.74315     -1970.2639      40.097699     -1930.1662     -378.26283      5435.2063      12.432458      21.53365       20.302119    
     18000   643.03957     -1970.236       35.824456     -1934.4116      6221.1123      5379.5365      12.389866      21.459878      20.232567    
     18500   620.79582     -1973.7287      34.585232     -1939.1435      2799.347       5383.9571      12.393259      21.465755      20.238107    
     19000   643.24629     -1972.5502      35.835973     -1936.7142     -1336.8298      5412.8481      12.415388      21.504082      20.274243    
     19500   658.06469     -1970.5155      36.661522     -1933.854      -2086.7191      5434.2038      12.431694      21.532326      20.300871    
     20000   655.11223     -1971.5654      36.497037     -1935.0684     -4852.6987      5429.4861      12.428095      21.526093      20.294995    
     20500   655.0117      -1974.6328      36.491437     -1938.1414      1831.5285      5383.1814      12.392664      21.464724      20.237135    
     21000   644.17222     -1971.4179      35.887558     -1935.5304     -1198.2371      5405.7801      12.409981      21.494718      20.265415    
     21500   644.34191     -1969.6942      35.897011     -1933.7971     -872.04569      5423.9924      12.423902      21.51883       20.288147    
     22000   641.97748     -1972.4804      35.765286     -1936.7151     -12697.395      5458.4958      12.45019       21.564362      20.331076    
     22500   642.59115     -1973.2205      35.799474     -1937.421      -2496.8913      5423.6714      12.423657      21.518405      20.287747    
     23000   646.25049     -1970.7239      36.00334      -1934.7205     -1738.57        5423.5001      12.423526      21.518179      20.287534    
     23500   665.36115     -1967.142       37.068017     -1930.074      -2212.0838      5428.1312      12.427061      21.524302      20.293306    
     24000   630.77889     -1973.2025      35.1414       -1938.0611     -134.20788      5402.3239      12.407336      21.490136      20.261095    
     24500   632.62338     -1972.6045      35.244159     -1937.3604     -1491.127       5416.0925      12.417868      21.508378      20.278293    
     25000   637.26511     -1974.7397      35.502754     -1939.237      -231.46205      5397.9037      12.403951      21.484274      20.255567    
     25500   658.56185     -1973.1367      36.68922      -1936.4475     -2539.8699      5424.7795      12.424503      21.519871      20.289129    
     26000   631.22549     -1970.1775      35.16628      -1935.0112     -695.03935      5410.9983      12.413973      21.501632      20.271933    
     26500   630.18946     -1971.6599      35.108562     -1936.5513     -4188.3078      5423.6552      12.423645      21.518384      20.287727    
     27000   604.56885     -1972.849       33.681209     -1939.1678     -4665.8679      5422.6546      12.422881      21.517061      20.286479    
     27500   647.31367     -1969.9024      36.062571     -1933.8398     -3574.0305      5436.987       12.433816      21.536001      20.304336    
     28000   670.02415     -1970.5721      37.327797     -1933.2443     -12991.886      5469.3781      12.458459      21.578684      20.344578    
     28500   652.04269     -1970.5871      36.32603      -1934.2611     -3990.4942      5420.4732      12.421215      21.514175      20.283759    
     29000   636.22887     -1972.5639      35.445025     -1937.1189     -2944.1887      5427.0515      12.426237      21.522875      20.291961    
     29500   629.9684      -1971.1849      35.096247     -1936.0887      5895.4878      5389.159       12.397249      21.472666      20.244623    
     30000   650.20186     -1973.4416      36.223475     -1937.2181      9981.754       5371.0052      12.383313      21.448528      20.221866    
     30500   652.60538     -1970.9324      36.357378     -1934.575       7621.0673      5379.6367      12.389943      21.460011      20.232693    
     31000   663.75542     -1972.0525      36.978559     -1935.0739      3095.8412      5416.3112      12.418035      21.508667      20.278566    
     31500   626.66591     -1972.9107      34.912261     -1937.9984      360.59074      5411.1561      12.414094      21.501841      20.27213     
     32000   636.05019     -1975.5861      35.43507      -1940.151      -6814.2386      5422.8587      12.423037      21.517331      20.286734    
     32500   622.09116     -1969.637       34.657397     -1934.9797     -1698.8933      5417.1413      12.418669      21.509766      20.279602    
     33000   661.13216     -1972.21        36.832415     -1935.3776      8429.3898      5387.6903      12.396123      21.470715      20.242784    
     33500   600.45576     -1973.9302      33.452064     -1940.4781     -872.54401      5406.2439      12.410336      21.495333      20.265994    
     34000   614.2622      -1974.1006      34.221237     -1939.8793     -940.27037      5421.2967      12.421844      21.515264      20.284786    
     34500   654.46186     -1972.9019      36.460805     -1936.4411     -1732.7274      5416.4847      12.418167      21.508897      20.278782    
     35000   670.10615     -1972.5162      37.332366     -1935.1839      6650.5413      5378.2934      12.388912      21.458225      20.231008    
     35500   666.05321     -1970.0771      37.106572     -1932.9705     -3260.596       5425.558       12.425098      21.5209        20.290099    
     36000   628.11306     -1973.4353      34.992884     -1938.4424      3605.8302      5386.6138      12.395297      21.469285      20.241436    
     36500   671.75958     -1975.087       37.42448      -1937.6625      4186.4903      5393.4919      12.400571      21.478419      20.250047    
     37000   712.85214     -1971.6408      39.713793     -1931.927       2192.0072      5396.5247      12.402895      21.482444      20.253842    
     37500   658.39842     -1971.648       36.680115     -1934.9678     -1017.6197      5395.3926      12.402027      21.480942      20.252426    
     38000   639.9263      -1973.392       35.651013     -1937.741      -8517.8826      5431.4489      12.429593      21.528686      20.29744     
     38500   619.4614      -1973.7386      34.51089      -1939.2277     -4036.3456      5432.8682      12.430675      21.530561      20.299208    
     39000   630.93183     -1972.6709      35.14992      -1937.5209     -1681.0078      5404.1388      12.408725      21.492543      20.263363    
     39500   642.89415     -1969.5014      35.816355     -1933.685      -4702.8651      5427.7754      12.42679       21.523832      20.292863    
     40000   702.5191      -1972.7207      39.138128     -1933.5826     -670.64346      5406.6716      12.410663      21.4959        20.266529    
     40500   641.8723      -1971.4561      35.759426     -1935.6967     -7717.6379      5426.4552      12.425782      21.522086      20.291218    
     41000   632.74531     -1973.8643      35.250951     -1938.6134     -3272.9562      5414.2812      12.416483      21.50598       20.276032    
     41500   653.95711     -1972.5523      36.432684     -1936.1196     -2062.5244      5411.2911      12.414197      21.50202       20.272299    
     42000   657.9781      -1970.7077      36.656699     -1934.051      -4544.567       5430.6554      12.428987      21.527638      20.296452    
     42500   660.57005     -1970.1551      36.801099     -1933.354      -3281.2236      5432.9015      12.430701      21.530605      20.299249    
     43000   634.53475     -1971.5562      35.350643     -1936.2056      1401.1005      5406.8865      12.410828      21.496185      20.266797    
     43500   641.30563     -1972.1916      35.727856     -1936.4637     -2188.8488      5423.2931      12.423368      21.517905      20.287276    
     44000   599.3121      -1969.3452      33.38835      -1935.9569     -5508.4199      5451.6051      12.444949      21.555285      20.322517    
     44500   588.53479     -1971.2828      32.787934     -1938.4949      4020.1335      5396.1515      12.402609      21.481949      20.253375    
     45000   615.69355     -1972.9964      34.300979     -1938.6954      2038.4794      5412.5299      12.415144      21.503661      20.273846    
     45500   651.61042     -1972.2212      36.301948     -1935.9192     -1151.6972      5409.0265      12.412465      21.49902       20.269471    
     46000   685.64666     -1972.174       38.198145     -1933.9759     -6623.0643      5427.9358      12.426912      21.524044      20.293063    
     46500   677.60608     -1973.6674      37.750195     -1935.9172     -2353.0866      5414.0534      12.416309      21.505678      20.275748    
     47000   625.07638     -1973.0586      34.823707     -1938.2349     -4834.3855      5422.0784      12.422441      21.516299      20.285761    
     47500   617.98418     -1971.2859      34.428592     -1936.8573     -1470.0632      5422.9291      12.42309       21.517424      20.286822    
     48000   636.18625     -1975.1248      35.44265      -1939.6821     -762.3776       5417.5722      12.418998      21.510336      20.280139    
     48500   675.31715     -1972.5512      37.622677     -1934.9285      4280.2746      5399.6342      12.405277      21.486569      20.257732    
     49000   649.92479     -1970.0109      36.208039     -1933.8028      4749.6868      5396.6692      12.403005      21.482636      20.254023    
     49500   652.5526      -1973.4869      36.354438     -1937.1325     -906.42051      5404.5082      12.409008      21.493032      20.263825    
     50000   663.70905     -1972.8718      36.975976     -1935.8959     -856.30083      5394.9327      12.401675      21.480331      20.25185     
Loop time of 655.904 on 8 procs for 50000 steps with 432 atoms

Performance: 6.586 ns/day, 3.644 hours/ns, 76.231 timesteps/s, 32.932 katom-step/s
96.2% CPU use with 1 MPI tasks x 8 OpenMP threads

MPI task timing breakdown:
Section |  min time  |  avg time  |  max time  |%varavg| %total
---------------------------------------------------------------
Pair    | 597.24     | 597.24     | 597.24     |   0.0 | 91.06
Neigh   | 0.011061   | 0.011061   | 0.011061   |   0.0 |  0.00
Comm    | 0.74315    | 0.74315    | 0.74315    |   0.0 |  0.11
Output  | 0.008919   | 0.008919   | 0.008919   |   0.0 |  0.00
Modify  | 57.751     | 57.751     | 57.751     |   0.0 |  8.80
Other   |            | 0.1487     |            |       |  0.02

Nlocal:            432 ave         432 max         432 min
Histogram: 1 0 0 0 0 0 0 0 0 0
Nghost:           2642 ave        2642 max        2642 min
Histogram: 1 0 0 0 0 0 0 0 0 0
Neighs:          36497 ave       36497 max       36497 min
Histogram: 1 0 0 0 0 0 0 0 0 0
FullNghs:        72994 ave       72994 max       72994 min
Histogram: 1 0 0 0 0 0 0 0 0 0

Total # of neighbors = 72994
Ave neighs/atom = 168.96759
Neighbor list builds = 12
Dangerous builds = 0

=== FINAL RESULTS: HCP at 650 K ===
Atoms: 432 | PE/atom: -4.56676557391933 eV/atom
WARNING: Detected non-ASCII characters in input. Will try to continue by replacing with ASCII equivalents where known. (src/input.cpp:479)
Volume: 5394.93269473571 …³ | Area: 266.392086187108 ²
==========================================
HCP 650 432 -4.56676557391933 5394.93269473571 12.4016749925229 21.4803311929815 20.251850465807 266.392086187108
Simulation complete!
Total wall time: 0:15:19
