LAMMPS (10 Sep 2025)
  using 8 OpenMP thread(s) per MPI task
Loaded 1 plugins from C:\Users\kumar\AppData\Local\LAMMPS 64-bit 10Sep2025\plugins
using multi-threaded neighbor list subroutines
Reading data file ...
  orthogonal box = (0 0 0) to (15.51958 26.8807 25.343367)
  1 by 1 by 1 MPI processor grid
  reading atoms ...
  432 atoms
  read_data CPU = 0.003 seconds
=== STAGE 1: Energy Minimization ===
Switching to 'neigh_modify every 1 delay 0 check yes' setting during minimization
No /omp style for force computation currently active
Neighbor list info ...
  update: every = 1 steps, delay = 0 steps, check = yes
  max neighbors/atom: 4000, page size: 100000
  master list distance cutoff = 8
  ghost atom cutoff = 8
  binsize = 4, bins = 4 7 7
  2 neighbor lists, perpetual/occasional/extra = 2 0 0
  (1) pair meam, perpetual
      attributes: full, newton on, omp
      pair build: full/bin/atomonly/omp
      stencil: full/bin/3d
      bin: standard
  (2) pair meam, perpetual, half/full from (1)
      attributes: half, newton on, omp
      pair build: halffull/newton/omp
      stencil: none
      bin: none
Setting up cg style minimization ...
  Unit style    : metal
  Current step  : 0
Per MPI rank memory allocation (min/avg/max) = 19.36 | 19.36 | 19.36 Mbytes
   Step          Temp          PotEng         KinEng         TotEng         Press          Volume           Lx             Ly             Lz      
         0   0             -1262.1994      0             -1262.1994     -44648.019      10572.674      15.51958       26.8807        25.343367    
       215   0             -1590.8298      0             -1590.8298     -60297.674      10572.674      15.51958       26.8807        25.343367    
Loop time of 2.84969 on 8 procs for 215 steps with 432 atoms

95.4% CPU use with 1 MPI tasks x 8 OpenMP threads

Minimization stats:
  Stopping criterion = energy tolerance
  Energy initial, next-to-last, final = 
     -1262.19940430986    -1590.828830457  -1590.82975324209
  Force two-norm initial, final = 49.821112 6.2950817
  Force max component initial, final = 6.8015123 1.9760944
  Final line search alpha, max atom move = 0.035287018 0.069730476
  Iterations, force evaluations = 215 585

MPI task timing breakdown:
Section |  min time  |  avg time  |  max time  |%varavg| %total
---------------------------------------------------------------
Pair    | 2.7722     | 2.7722     | 2.7722     |   0.0 | 97.28
Neigh   | 0.003946   | 0.003946   | 0.003946   |   0.0 |  0.14
Comm    | 0.004815   | 0.004815   | 0.004815   |   0.0 |  0.17
Output  | 0          | 0          | 0          |   0.0 |  0.00
Modify  | 0.061917   | 0.061917   | 0.061917   |   0.0 |  2.17
Other   |            | 0.006831   |            |       |  0.24

Nlocal:            432 ave         432 max         432 min
Histogram: 1 0 0 0 0 0 0 0 0 0
Nghost:           1847 ave        1847 max        1847 min
Histogram: 1 0 0 0 0 0 0 0 0 0
Neighs:          18594 ave       18594 max       18594 min
Histogram: 1 0 0 0 0 0 0 0 0 0
FullNghs:        37188 ave       37188 max       37188 min
Histogram: 1 0 0 0 0 0 0 0 0 0

Total # of neighbors = 37188
Ave neighs/atom = 86.083333
Neighbor list builds = 6
Dangerous builds = 0
Minimized PE/atom: -3.68247628065298 eV/atom
=== STAGE 2: NPT Equilibration at 650 K ===
No /omp style for force computation currently active
Setting up Verlet run ...
  Unit style    : metal
  Current step  : 0
  Time step     : 0.002
Per MPI rank memory allocation (min/avg/max) = 18.25 | 18.25 | 18.25 Mbytes
   Step          Temp          PotEng         KinEng         TotEng         Press          Volume           Lx             Ly             Lz      
         0   650           -1590.8298      36.21223      -1554.6175     -56639.288      10572.674      15.51958       26.8807        25.343367    
       500   1135.6353     -1814.4515      63.267517     -1751.184      -16027.836      6344.5381      13.090362      22.673173      21.376472    
      1000   653.62461     -1907.2347      36.414161     -1870.8205      693.90859      5654.4668      12.597438      21.819402      20.57153     
      1500   663.60326     -1925.5121      36.970082     -1888.542      -5117.6551      5599.6747      12.556616      21.748696      20.504868    
      2000   635.70571     -1932.7056      35.415879     -1897.2898     -2421.1514      5561.5188      12.528031      21.699185      20.458188    
      2500   646.75984     -1935.8246      36.031716     -1899.7928      2456.5361      5522.7962      12.498887      21.648707      20.410597    
      3000   672.27694     -1939.2948      37.453303     -1901.8415      2940.1872      5543.0128      12.514119      21.675091      20.435472    
      3500   644.50358     -1941.3153      35.906018     -1905.4093      7223.9874      5502.0145      12.48319       21.621519      20.384964    
      4000   641.80645     -1938.9089      35.755758     -1903.1532      3008.2482      5507.3343      12.487212      21.628485      20.391532    
      4500   650.109       -1942.1926      36.218302     -1905.9743      2618.3959      5498.996       12.480907      21.617565      20.381235    
      5000   642.45185     -1948.4261      35.791714     -1912.6344     -2905.9827      5494.9386      12.477836      21.612246      20.376221    
      5500   662.67805     -1946.5155      36.918538     -1909.5969     -9013.4151      5520.3385      12.497033      21.645496      20.407569    
      6000   662.05251     -1948.106       36.883689     -1911.2223     -2384.9005      5495.7258      12.478432      21.613278      20.377194    
      6500   682.8278      -1951.3204      38.041103     -1913.2793     -3513.8748      5485.1222      12.470402      21.599369      20.36408     
      7000   622.9163      -1953.9523      34.703367     -1919.2489     -2894.4242      5471.8821      12.46036       21.581976      20.347682    
      7500   600.0594      -1953.4414      33.429983     -1920.0114     -228.41914      5477.7048      12.464778      21.589629      20.354897    
      8000   679.42168     -1956.0094      37.851345     -1918.1581     -1038.3861      5475.6459      12.463216      21.586923      20.352347    
      8500   669.70295     -1958.9758      37.309903     -1921.6659      1338.9526      5466.5178      12.456287      21.574921      20.341031    
      9000   659.12735     -1960.8899      36.720725     -1924.1692     -7039.794       5470.4921      12.459305      21.580148      20.345959    
      9500   677.84605     -1960.6904      37.763565     -1922.9268     -5347.0846      5450.8025      12.444339      21.554227      20.32152     
     10000   658.61103     -1964.4568      36.69196      -1927.7649      5182.1499      5418.0073      12.419331      21.510912      20.280682    
     10500   661.67134     -1965.7897      36.862453     -1928.9273     -2586.5177      5428.7394      12.427526      21.525106      20.294064    
     11000   637.40022     -1962.6305      35.510282     -1927.1202     -2273.4832      5457.1748      12.449186      21.562623      20.329436    
     11500   630.68422     -1964.0361      35.136126     -1928.9         2754.37        5429.0333      12.42775       21.525494      20.294431    
     12000   682.44525     -1964.7065      38.019791     -1926.6868      2938.0778      5413.8988      12.416191      21.505473      20.275555    
     12500   713.78742     -1963.6489      39.765898     -1923.883       376.71323      5437.8784      12.434495      21.537178      20.305446    
     13000   632.77644     -1965.9461      35.252686     -1930.6934     -8517.1847      5460.2995      12.451562      21.566737      20.333315    
     13500   630.47836     -1966.4087      35.124657     -1931.2841     -612.27867      5421.4058      12.421927      21.515409      20.284922    
     14000   650.82871     -1969.1415      36.258398     -1932.8831      10548.58       5363.869       12.377826      21.439024      20.212906    
     14500   646.08114     -1966.3477      35.993906     -1930.3538      2718.2959      5417.0302      12.418584      21.509619      20.279463    
     15000   663.98451     -1967.2787      36.991322     -1930.2874     -4081.1658      5432.8594      12.430669      21.53055       20.299197    
     15500   696.976       -1968.7651      38.829315     -1929.9358     -903.1501       5424.2198      12.424076      21.519131      20.288431    
     16000   674.95684     -1964.9508      37.602603     -1927.3482     -2061.2907      5437.4237      12.434149      21.536578      20.30488     
     16500   649.64542     -1970.0122      36.192475     -1933.8197     -1652.6369      5415.9998      12.417797      21.508255      20.278177    
     17000   620.59826     -1968.3423      34.574226     -1933.7681     -6822.2028      5456.154       12.44841       21.561278      20.328168    
     17500   609.41782     -1971.6518      33.951351     -1937.7004     -1701.0384      5410.7706      12.413799      21.501331      20.271649    
     18000   610.22769     -1971.29        33.99647      -1937.2936      6520.4587      5394.6799      12.401481      21.479996      20.251534    
     18500   656.50776     -1969.4149      36.574784     -1932.8401      302.5591       5413.9196      12.416207      21.505501      20.275581    
     19000   647.28617     -1969.4326      36.061039     -1933.3716      7868.2741      5408.5922      12.412133      21.498445      20.268928    
     19500   579.99921     -1972.2834      32.312407     -1939.971       770.58309      5414.4518      12.416614      21.506206      20.276245    
     20000   634.3328      -1973.0578      35.339393     -1937.7184     -7699.929       5443.3223      12.438643      21.544362      20.31222     
Loop time of 208.183 on 8 procs for 20000 steps with 432 atoms

Performance: 16.601 ns/day, 1.446 hours/ns, 96.069 timesteps/s, 41.502 katom-step/s
97.1% CPU use with 1 MPI tasks x 8 OpenMP threads

MPI task timing breakdown:
Section |  min time  |  avg time  |  max time  |%varavg| %total
---------------------------------------------------------------
Pair    | 188.85     | 188.85     | 188.85     |   0.0 | 90.71
Neigh   | 0.040713   | 0.040713   | 0.040713   |   0.0 |  0.02
Comm    | 0.22762    | 0.22762    | 0.22762    |   0.0 |  0.11
Output  | 0.003371   | 0.003371   | 0.003371   |   0.0 |  0.00
Modify  | 19.007     | 19.007     | 19.007     |   0.0 |  9.13
Other   |            | 0.05709    |            |       |  0.03

Nlocal:            432 ave         432 max         432 min
Histogram: 1 0 0 0 0 0 0 0 0 0
Nghost:           2650 ave        2650 max        2650 min
Histogram: 1 0 0 0 0 0 0 0 0 0
Neighs:          36487 ave       36487 max       36487 min
Histogram: 1 0 0 0 0 0 0 0 0 0
FullNghs:        72974 ave       72974 max       72974 min
Histogram: 1 0 0 0 0 0 0 0 0 0

Total # of neighbors = 72974
Ave neighs/atom = 168.9213
Neighbor list builds = 47
Dangerous builds = 0
=== STAGE 3: NPT Production at 650 K ===
No /omp style for force computation currently active
Setting up Verlet run ...
  Unit style    : metal
  Current step  : 0
  Time step     : 0.001
Per MPI rank memory allocation (min/avg/max) = 18.87 | 18.87 | 18.87 Mbytes
   Step          Temp          PotEng         KinEng         TotEng         Press          Volume           Lx             Ly             Lz      
         0   634.3328      -1973.0578      35.339393     -1937.7184     -7699.929       5443.3223      12.438643      21.544362      20.31222     
       500   635.8835      -1969.2527      35.425783     -1933.8269     -484.41087      5418.4486      12.419668      21.511496      20.281233    
      1000   716.37779     -1970.8469      39.910211     -1930.9367      4921.0556      5399.7182      12.405341      21.486681      20.257837    
      1500   694.82467     -1974.0512      38.709462     -1935.3417      1831.1657      5403.1882      12.407998      21.491282      20.262175    
      2000   630.59462     -1971.9776      35.131134     -1936.8465     -1169.571       5413.9284      12.416213      21.505513      20.275592    
      2500   626.52452     -1972.5672      34.904384     -1937.6629      5336.5054      5396.8275      12.403127      21.482846      20.254221    
      3000   662.25212     -1970.9349      36.894809     -1934.04        5790.0994      5394.0329      12.400985      21.479137      20.250725    
      3500   669.46053     -1971.9128      37.296398     -1934.6164      4324.1031      5393.6809      12.400716      21.47867       20.250284    
      4000   644.4617      -1972.9356      35.903685     -1937.032      -4981.0497      5415.7312      12.417592      21.507899      20.277842    
      4500   581.43322     -1970.9593      32.392297     -1938.567      -2500.8151      5420.9803      12.421602      21.514846      20.284391    
      5000   644.99269     -1971.4269      35.933267     -1935.4936     -6871.5382      5429.0921      12.427795      21.525572      20.294504    
      5500   634.05886     -1974.1735      35.324131     -1938.8493     -5364.5101      5425.0837      12.424735      21.520273      20.289508    
      6000   623.98795     -1972.2393      34.763069     -1937.4762      905.8698       5409.3584      12.412719      21.49946       20.269885    
      6500   651.09644     -1974.3129      36.273313     -1938.0396     -4747.528       5416.9948      12.418557      21.509572      20.279419    
      7000   700.96445     -1968.6674      39.051516     -1929.6159      3771.4302      5426.431       12.425764      21.522054      20.291188    
      7500   669.9456      -1974.7795      37.323421     -1937.456       8362.2428      5385.9446      12.394784      21.468396      20.240597    
      8000   641.84797     -1972.0361      35.758071     -1936.278       4284.0807      5394.2194      12.401128      21.479385      20.250958    
      8500   643.79301     -1972.3354      35.866431     -1936.469      -5034.6883      5437.1581      12.433946      21.536227      20.304549    
      9000   599.93923     -1973.4846      33.423288     -1940.0613     -3093.4628      5406.3795      12.41044       21.495513      20.266164    
      9500   687.27106     -1975.0852      38.288642     -1936.7966      2783.0765      5392.006       12.399432      21.476446      20.248188    
     10000   637.12476     -1970.3746      35.494935     -1934.8796      802.65392      5404.9504      12.409346      21.493618      20.264378    
     10500   629.67688     -1967.7325      35.080006     -1932.6524     -6993.5133      5443.9277      12.439105      21.545161      20.312973    
     11000   684.37115     -1971.7904      38.127085     -1933.6633     -6305.0354      5438.251       12.434779      21.53767       20.30591     
     11500   637.24834     -1973.8705      35.501821     -1938.3687     -1992.0557      5413.2619      12.415704      21.50463       20.27476     
     12000   629.10156     -1970.8735      35.047954     -1935.8255      6303.3646      5381.551       12.391413      21.462556      20.235092    
     12500   668.24079     -1974.3095      37.228444     -1937.0811      791.04978      5401.1843      12.406463      21.488625      20.25967     
     13000   636.95741     -1973.6465      35.485612     -1938.1609      265.89849      5393.4278      12.400522      21.478334      20.249967    
     13500   627.83885     -1971.1144      34.977607     -1936.1368     -5870.7862      5423.6157      12.423615      21.518332      20.287678    
     14000   657.05888     -1971.3836      36.605488     -1934.7781      3153.4058      5388.9524      12.397091      21.472391      20.244365    
     14500   637.91235     -1974.8752      35.538813     -1939.3364     -1113.786       5390.4272      12.398222      21.47435       20.246211    
     15000   620.73831     -1972.5583      34.582028     -1937.9762      11066.094      5357.6266      12.373023      21.430704      20.205062    
     15500   662.98363     -1972.3876      36.935562     -1935.4521     -940.04223      5401.4821      12.406691      21.48902       20.260042    
     16000   686.21464     -1972.1957      38.229788     -1933.9659     -6911.0213      5415.5671      12.417466      21.507682      20.277637    
     16500   679.63999     -1973.0903      37.863506     -1935.2268     -1923.9997      5395.6823      12.402249      21.481326      20.252788    
     17000   585.36475     -1975.9239      32.611327     -1943.3126      5212.6705      5365.7226      12.379252      21.441494      20.215234    
     17500   650.08326     -1973.782       36.216868     -1937.5651     -9981.7017      5442.8584      12.43829       21.54375       20.311643    
     18000   678.51285     -1974.1144      37.800713     -1936.3137     -1693.5726      5396.3416      12.402754      21.482201      20.253613    
     18500   671.66231     -1972.1793      37.419061     -1934.7602      6550.065       5381.3743      12.391277      21.462322      20.234871    
     19000   630.41834     -1972.3576      35.121313     -1937.2362     -3190.7505      5420.274       12.421063      21.513911      20.28351     
     19500   619.56539     -1972.2888      34.516684     -1937.7721     -9997.1736      5439.7819      12.435946      21.539691      20.307815    
     20000   613.61258     -1975.2039      34.185046     -1941.0188     -5597.3857      5401.2428      12.406508      21.488703      20.259743    
     20500   598.94788     -1973.2539      33.368059     -1939.8858     -2552.7908      5409.5438      12.412861      21.499705      20.270117    
     21000   638.72652     -1970.2129      35.584171     -1934.6288     -2726.3913      5411.149       12.414088      21.501832      20.272121    
     21500   640.73703     -1974.1446      35.696179     -1938.4484      199.80731      5392.2959      12.399654      21.476831      20.248551    
     22000   586.79465     -1971.4202      32.690989     -1938.7292      7425.1164      5363.307       12.377394      21.438276      20.2122      
     22500   689.95015     -1972.2905      38.437897     -1933.8526      1860.6805      5405.3813      12.409676      21.49419       20.264916    
     23000   658.64162     -1971.8876      36.693664     -1935.194       1732.3525      5383.1037      12.392604      21.46462       20.237038    
     23500   669.12713     -1974.1431      37.277824     -1936.8652      3332.1203      5387.8404      12.396238      21.470914      20.242972    
     24000   667.47084     -1974.3829      37.18555      -1937.1973     -4909.8448      5408.3946      12.411982      21.498183      20.268681    
     24500   638.84722     -1974.7324      35.590896     -1939.1415     -2729.5968      5406.2041      12.410306      21.49528       20.265944    
     25000   656.35346     -1972.9383      36.566188     -1936.3721     -2329.9806      5416.3554      12.418069      21.508726      20.278621    
     25500   704.74297     -1972.4739      39.262022     -1933.2119      38.783052      5414.0814      12.41633       21.505715      20.275783    
     26000   659.58582     -1974.7587      36.746267     -1938.0124      1435.3593      5385.2948      12.394286      21.467532      20.239783    
     26500   604.61726     -1974.8156      33.683906     -1941.1317     -3905.5684      5404.3905      12.408918      21.492876      20.263678    
     27000   637.88705     -1974.3345      35.537404     -1938.7971      12805.833      5364.7975      12.378541      21.440261      20.214072    
     27500   633.03167     -1972.2521      35.266905     -1936.9852      2472.3033      5402.9933      12.407848      21.491024      20.261932    
     28000   630.23694     -1972.7883      35.111207     -1937.6771      3365.0602      5392.0393      12.399458      21.47649       20.248229    
     28500   625.38694     -1974.2624      34.841008     -1939.4214     -7783.5989      5420.6811      12.421373      21.51445       20.284018    
     29000   651.95455     -1970.6195      36.32112      -1934.2984     -7886.4498      5444.9707      12.439899      21.546537      20.31427     
     29500   674.38111     -1974.3697      37.570529     -1936.7992     -2548.7414      5404.1895      12.408764      21.49261       20.263427    
     30000   661.58766     -1975.3072      36.857791     -1938.4494      3442.6565      5391.7061      12.399202      21.476048      20.247812    
     30500   656.94218     -1976.054       36.598986     -1939.455       546.15726      5393.9368      12.400912      21.479009      20.250604    
     31000   614.6188      -1976.4529      34.241103     -1942.2118      6028.8521      5379.2248      12.389627      21.459463      20.232176    
     31500   638.71377     -1975.0238      35.583461     -1939.4404      6335.5352      5387.9386      12.396313      21.471045      20.243095    
     32000   664.73844     -1975.6098      37.033325     -1938.5765      588.54973      5397.239       12.403442      21.483392      20.254736    
     32500   659.2937      -1975.8875      36.729992     -1939.1575     -8852.918       5432.5994      12.43047       21.530206      20.298873    
     33000   662.77052     -1976.8598      36.92369      -1939.9361     -5206.6033      5416.0014      12.417798      21.508257      20.278179    
     33500   650.41661     -1973.687       36.235439     -1937.4516      6235.401       5381.7691      12.39158       21.462846      20.235366    
     34000   638.6853      -1976.3009      35.581875     -1940.7191     -2373.1355      5393.6114      12.400662      21.478577      20.250197    
     34500   665.43721     -1977.7706      37.072254     -1940.6983      2489.596       5376.8116      12.387774      21.456254      20.22915     
     35000   699.43325     -1976.5287      38.966211     -1937.5624     -3325.8619      5393.7577      12.400775      21.478772      20.25038     
     35500   661.62747     -1974.8354      36.860009     -1937.9754     -2768.673       5416.2373      12.417978      21.508569      20.278474    
     36000   615.92228     -1974.7951      34.313722     -1940.4814     -323.73518      5389.7276      12.397685      21.473421      20.245335    
     36500   608.04472     -1974.8354      33.874854     -1940.9606     -4685.9276      5409.2193      12.412613      21.499276      20.269711    
     37000   639.65973     -1977.0613      35.636161     -1941.4251     -5697.1365      5414.8146      12.416891      21.506686      20.276698    
     37500   680.94711     -1978.3914      37.936328     -1940.4551     -2575.3052      5397.2322      12.403437      21.483383      20.254727    
     38000   714.25254     -1977.1097      39.791811     -1937.3179      3602.963       5369.8819      12.38245       21.447032      20.220456    
     38500   702.58293     -1976.2856      39.141684     -1937.1439     -1369.7175      5395.5213      12.402126      21.481112      20.252587    
     39000   646.30282     -1976.2305      36.006256     -1940.2243     -6604.2029      5423.9696      12.423885      21.5188        20.288119    
     39500   623.77671     -1977.0388      34.7513       -1942.2875     -13632.155      5449.9593      12.443697      21.553115      20.320472    
     40000   654.51287     -1976.509       36.463647     -1940.0454     -7859.5368      5420.3923      12.421153      21.514068      20.283658    
     40500   686.32042     -1976.5795      38.235681     -1938.3439      4121.369       5371.2573      12.383507      21.448863      20.222182    
     41000   657.66467     -1978.4475      36.639237     -1941.8083     -2764.3624      5384.1026      12.393371      21.465948      20.23829     
     41500   618.81023     -1978.4442      34.474613     -1943.9696     -8508.2115      5418.158       12.419446      21.511111      20.28087     
     42000   625.80842     -1977.5352      34.86449      -1942.6707      3130.1464      5372.5697      12.384515      21.45061       20.223829    
     42500   651.81826     -1975.9684      36.313527     -1939.6549      5615.0282      5365.4091      12.379011      21.441076      20.21484     
     43000   642.07177     -1976.5852      35.770539     -1940.8146      2729.688       5382.4968      12.392139      21.463814      20.236278    
     43500   661.38343     -1979.1284      36.846413     -1942.2819     -4049.2612      5406.8635      12.41081       21.496154      20.266768    
     44000   628.38972     -1975.9769      35.008297     -1940.9686     -3484.2186      5406.8854      12.410827      21.496183      20.266796    
     44500   617.08275     -1979.0298      34.378373     -1944.6514      2954.262       5364.2902      12.37815       21.439585      20.213435    
     45000   699.47862     -1975.7761      38.968739     -1936.8074     -2652.9234      5404.0599      12.408665      21.492438      20.263265    
     45500   613.43253     -1976.0187      34.175015     -1941.8437      1470.9052      5389.2944      12.397353      21.472846      20.244793    
     46000   660.4407      -1977.6778      36.793893     -1940.8839      4218.2388      5359.5805      12.374527      21.433309      20.207518    
     46500   674.86196     -1977.9818      37.597318     -1940.3845      2371.0501      5368.9867      12.381762      21.445841      20.219332    
     47000   654.01119     -1974.5427      36.435698     -1938.107      -12762.648      5424.3113      12.424146      21.519252      20.288545    
     47500   632.19855     -1977.5923      35.220491     -1942.3718     -10654.67       5433.17        12.430906      21.53096       20.299584    
     48000   631.45082     -1975.2866      35.178834     -1940.1078     -7882.9875      5421.9988      12.42238       21.516193      20.285661    
     48500   653.35237     -1974.6725      36.398994     -1938.2735      3084.2695      5386.7508      12.395402      21.469467      20.241607    
     49000   630.27676     -1976.9557      35.113426     -1941.8422      7881.4176      5354.1191      12.370322      21.426027      20.200652    
     49500   655.44263     -1979.1537      36.515444     -1942.6382      3352.0169      5364.6649      12.378439      21.440085      20.213906    
     50000   648.00031     -1980.0958      36.100824     -1943.995      -6144.0356      5383.518       12.392922      21.465171      20.237557    
Loop time of 434.447 on 8 procs for 50000 steps with 432 atoms

Performance: 9.944 ns/day, 2.414 hours/ns, 115.089 timesteps/s, 49.718 katom-step/s
92.4% CPU use with 1 MPI tasks x 8 OpenMP threads

MPI task timing breakdown:
Section |  min time  |  avg time  |  max time  |%varavg| %total
---------------------------------------------------------------
Pair    | 389.99     | 389.99     | 389.99     |   0.0 | 89.77
Neigh   | 0.011245   | 0.011245   | 0.011245   |   0.0 |  0.00
Comm    | 0.40572    | 0.40572    | 0.40572    |   0.0 |  0.09
Output  | 0.005716   | 0.005716   | 0.005716   |   0.0 |  0.00
Modify  | 43.955     | 43.955     | 43.955     |   0.0 | 10.12
Other   |            | 0.08211    |            |       |  0.02

Nlocal:            432 ave         432 max         432 min
Histogram: 1 0 0 0 0 0 0 0 0 0
Nghost:           2657 ave        2657 max        2657 min
Histogram: 1 0 0 0 0 0 0 0 0 0
Neighs:          36689 ave       36689 max       36689 min
Histogram: 1 0 0 0 0 0 0 0 0 0
FullNghs:        73378 ave       73378 max       73378 min
Histogram: 1 0 0 0 0 0 0 0 0 0

Total # of neighbors = 73378
Ave neighs/atom = 169.85648
Neighbor list builds = 12
Dangerous builds = 0

=== FINAL RESULTS: DHCP at 650 K ===
Atoms: 432 | PE/atom: -4.57548408264115 eV/atom
WARNING: Detected non-ASCII characters in input. Will try to continue by replacing with ASCII equivalents where known. (src/input.cpp:479)
Volume: 5383.51799578569 …³ | Area: 266.016195335479 ²
==========================================
DHCP 650 432 -4.57548408264115 5383.51799578569 12.3929222516671 21.4651710011087 20.2375572998344 266.016195335479
Simulation complete!
Total wall time: 0:10:45
