LAMMPS (10 Sep 2025)
  using 8 OpenMP thread(s) per MPI task
Loaded 1 plugins from C:\Users\J.Shiva\AppData\Local\LAMMPS 64-bit 10Sep2025\plugins
using multi-threaded neighbor list subroutines
Reading data file ...
  orthogonal box = (0 0 0) to (15.810625 27.384805 25.818642)
  1 by 1 by 1 MPI processor grid
  reading atoms ...
  432 atoms
  read_data CPU = 0.028 seconds
=== STAGE 1: Energy Minimization ===
Switching to 'neigh_modify every 1 delay 0 check yes' setting during minimization
No /omp style for force computation currently active
Neighbor list info ...
  update: every = 1 steps, delay = 0 steps, check = yes
  max neighbors/atom: 4000, page size: 100000
  master list distance cutoff = 8
  ghost atom cutoff = 8
  binsize = 4, bins = 4 7 7
  2 neighbor lists, perpetual/occasional/extra = 2 0 0
  (1) pair meam, perpetual
      attributes: full, newton on, omp
      pair build: full/bin/atomonly/omp
      stencil: full/bin/3d
      bin: standard
  (2) pair meam, perpetual, half/full from (1)
      attributes: half, newton on, omp
      pair build: halffull/newton/omp
      stencil: none
      bin: none
Setting up cg style minimization ...
  Unit style    : metal
  Current step  : 0
Per MPI rank memory allocation (min/avg/max) = 19.38 | 19.38 | 19.38 Mbytes
   Step          Temp          PotEng         KinEng         TotEng         Press          Volume           Lx             Ly             Lz      
         0   0             -1123.7508      0             -1123.7508     -86313.306      11178.72       15.810625      27.384805      25.818642    
       127   0             -1502.6842      0             -1502.6842     -52570.786      11178.72       15.810625      27.384805      25.818642    
Loop time of 1.0928 on 8 procs for 127 steps with 432 atoms

87.2% CPU use with 1 MPI tasks x 8 OpenMP threads

Minimization stats:
  Stopping criterion = energy tolerance
  Energy initial, next-to-last, final = 
     -1123.75079568341  -1502.68392822739  -1502.68419529423
  Force two-norm initial, final = 28.482333 8.6942575
  Force max component initial, final = 4.4461151 2.3600937
  Final line search alpha, max atom move = 0.00070946117 0.0016743949
  Iterations, force evaluations = 127 300

MPI task timing breakdown:
Section |  min time  |  avg time  |  max time  |%varavg| %total
---------------------------------------------------------------
Pair    | 1.0065     | 1.0065     | 1.0065     |   0.0 | 92.10
Neigh   | 0.00357    | 0.00357    | 0.00357    |   0.0 |  0.33
Comm    | 0.001686   | 0.001686   | 0.001686   |   0.0 |  0.15
Output  | 0          | 0          | 0          |   0.0 |  0.00
Modify  | 0.077122   | 0.077122   | 0.077122   |   0.0 |  7.06
Other   |            | 0.0039     |            |       |  0.36

Nlocal:            432 ave         432 max         432 min
Histogram: 1 0 0 0 0 0 0 0 0 0
Nghost:           1766 ave        1766 max        1766 min
Histogram: 1 0 0 0 0 0 0 0 0 0
Neighs:          17606 ave       17606 max       17606 min
Histogram: 1 0 0 0 0 0 0 0 0 0
FullNghs:        35212 ave       35212 max       35212 min
Histogram: 1 0 0 0 0 0 0 0 0 0

Total # of neighbors = 35212
Ave neighs/atom = 81.509259
Neighbor list builds = 4
Dangerous builds = 0
Minimized PE/atom: -3.47843563725516 eV/atom
=== STAGE 2: NPT Equilibration at 400 K ===
No /omp style for force computation currently active
Setting up Verlet run ...
  Unit style    : metal
  Current step  : 0
  Time step     : 0.002
Per MPI rank memory allocation (min/avg/max) = 18.25 | 18.25 | 18.25 Mbytes
   Step          Temp          PotEng         KinEng         TotEng         Press          Volume           Lx             Ly             Lz      
         0   400           -1502.6842      22.284449     -1480.3997     -50441.525      11178.72       15.810625      27.384805      25.818642    
       500   776.21531     -1706.6959      43.243826     -1663.4521     -10857.338      6547.8679      13.228735      22.912841      21.602433    
      1000   424.76311     -1777.587       23.66403      -1753.9229     -3804.0206      6001.7537      12.850235      22.257259      20.984345    
      1500   409.22405     -1786.1652      22.798331     -1763.3669     -2832.4732      5929.6175      12.798544      22.167728      20.899935    
      2000   400.70274     -1792.5693      22.3236       -1770.2457     -3429.9865      5886.1342      12.767182      22.113408      20.848721    
      2500   373.81082     -1795.7912      20.825421     -1774.9658     -905.56807      5874.6519      12.758875      22.09902       20.835156    
      3000   386.05597     -1793.9592      21.507612     -1772.4516     -986.13253      5865.5595      12.752289      22.087613      20.824401    
      3500   424.60632     -1796.5987      23.655295     -1772.9434     -4339.1965      5891.9997      12.771422      22.120751      20.855644    
      4000   396.2597      -1800.6842      22.076073     -1778.6081      1334.9867      5833.3042      12.728871      22.047051      20.786159    
      4500   364.72902     -1802.2074      20.319463     -1781.8879      1137.4816      5810.7457      12.712441      22.018594      20.75933     
      5000   414.338       -1801.444       23.083235     -1778.3608      2018.9242      5802.7243      12.706589      22.008458      20.749773    
      5500   424.21442     -1801.8282      23.633462     -1778.1948     -986.00056      5814.8271      12.715417      22.023748      20.764189    
      6000   407.43464     -1805.0062      22.698641     -1782.3075     -341.20181      5787.6584      12.695582      21.989394      20.731799    
      6500   384.87359     -1806.4197      21.44174      -1784.978       3166.559       5759.165       12.674714      21.953249      20.697722    
      7000   392.26983     -1807.3891      21.853793     -1785.5353     -842.39126      5765.7784      12.679564      21.961649      20.705641    
      7500   407.32479     -1808.1991      22.692521     -1785.5066     -376.50224      5770.9734      12.683371      21.968243      20.711858    
      8000   394.41603     -1812.2376      21.97336      -1790.2642      5196.317       5729.7089      12.653068      21.915757      20.662374    
      8500   383.27181     -1812.605       21.352503     -1791.2525     -155.82069      5734.8585      12.656858      21.922321      20.668562    
      9000   384.66771     -1811.938       21.43027      -1790.5078     -2291.2625      5759.9935      12.675322      21.954302      20.698714    
      9500   404.50821     -1813.502       22.535606     -1790.9664      5451.7118      5724.9753      12.649583      21.90972       20.656683    
     10000   408.9794      -1815.039       22.784701     -1792.2543      634.08793      5737.3559      12.658695      21.925503      20.671562    
     10500   400.89218     -1813.7983      22.334153     -1791.4642      51.142811      5757.1368      12.673226      21.950672      20.695292    
     11000   420.19103     -1813.9528      23.409314     -1790.5435      3107.2793      5740.7243      12.661172      21.929793      20.675607    
     11500   439.10177     -1812.7286      24.462852     -1788.2657     -2365.775       5765.655       12.679474      21.961492      20.705494    
     12000   391.03824     -1815.4511      21.785179     -1793.6659      4378.5239      5705.926       12.635537      21.885393      20.633746    
     12500   401.11967     -1815.9047      22.346827     -1793.5579     -1762.744       5735.4731      12.65731       21.923104      20.669301    
     13000   426.83773     -1816.5236      23.779609     -1792.744      -2174.6164      5724.554       12.649273      21.909183      20.656176    
     13500   400.88368     -1815.0256      22.33368      -1792.6919     -4947.1204      5742.0757      12.662165      21.931513      20.677229    
     14000   409.2305      -1818.1594      22.798691     -1795.3608     -4951.509       5760.8365      12.67594       21.955373      20.699724    
     14500   397.28773     -1817.9232      22.133346     -1795.7899     -4543.7664      5729.7031      12.653064      21.91575       20.662367    
     15000   394.941       -1817.4783      22.002606     -1795.4757     -3113.5121      5727.8359      12.651689      21.913369      20.660122    
     15500   433.05453     -1816.5624      24.125954     -1792.4364     -707.28915      5710.8368      12.639161      21.891669      20.639664    
     16000   411.88978     -1817.7953      22.946842     -1794.8485      4145.9342      5696.7452      12.628757      21.873648      20.622674    
     16500   389.22287     -1817.9314      21.684043     -1796.2474     -161.4062       5721.1549      12.646769      21.904846      20.652087    
     17000   400.48672     -1819.5994      22.311565     -1797.2878     -3492.8316      5712.1451      12.640126      21.893341      20.64124     
     17500   356.76731     -1817.3438      19.875908     -1797.4679     -403.6437       5732.3307      12.654998      21.919099      20.665525    
     18000   369.15793     -1816.1903      20.566203     -1795.6241     -1942.3323      5755.2193      12.671819      21.948234      20.692994    
     18500   395.20392     -1817.3228      22.017254     -1795.3056     -7085.3928      5759.5477      12.674995      21.953735      20.69818     
     19000   398.32935     -1820.3888      22.191375     -1798.1974     -2908.9863      5738.6439      12.659642      21.927143      20.673109    
     19500   397.42364     -1819.9388      22.140917     -1797.7979     -2831.8665      5699.2103      12.630578      21.876803      20.625648    
     20000   387.05156     -1822.7759      21.563077     -1801.2128      2193.5077      5674.364       12.612197      21.844965      20.595631    
Loop time of 162.058 on 8 procs for 20000 steps with 432 atoms

Performance: 21.326 ns/day, 1.125 hours/ns, 123.413 timesteps/s, 53.314 katom-step/s
88.5% CPU use with 1 MPI tasks x 8 OpenMP threads

MPI task timing breakdown:
Section |  min time  |  avg time  |  max time  |%varavg| %total
---------------------------------------------------------------
Pair    | 140.55     | 140.55     | 140.55     |   0.0 | 86.73
Neigh   | 0.025902   | 0.025902   | 0.025902   |   0.0 |  0.02
Comm    | 0.15585    | 0.15585    | 0.15585    |   0.0 |  0.10
Output  | 0.002983   | 0.002983   | 0.002983   |   0.0 |  0.00
Modify  | 21.292     | 21.292     | 21.292     |   0.0 | 13.14
Other   |            | 0.02823    |            |       |  0.02

Nlocal:            432 ave         432 max         432 min
Histogram: 1 0 0 0 0 0 0 0 0 0
Nghost:           2565 ave        2565 max        2565 min
Histogram: 1 0 0 0 0 0 0 0 0 0
Neighs:          34717 ave       34717 max       34717 min
Histogram: 1 0 0 0 0 0 0 0 0 0
FullNghs:        69434 ave       69434 max       69434 min
Histogram: 1 0 0 0 0 0 0 0 0 0

Total # of neighbors = 69434
Ave neighs/atom = 160.72685
Neighbor list builds = 30
Dangerous builds = 0
=== STAGE 3: NPT Production at 400 K ===
No /omp style for force computation currently active
Setting up Verlet run ...
  Unit style    : metal
  Current step  : 0
  Time step     : 0.001
Per MPI rank memory allocation (min/avg/max) = 18.63 | 18.63 | 18.63 Mbytes
   Step          Temp          PotEng         KinEng         TotEng         Press          Volume           Lx             Ly             Lz      
         0   387.05156     -1822.7759      21.563077     -1801.2128      2193.5077      5674.364       12.612197      21.844965      20.595631    
       500   415.44476     -1820.714       23.144894     -1797.5691     -652.847        5715.4262      12.642546      21.897532      20.645191    
      1000   400.95247     -1820.6737      22.337512     -1798.3362     -1031.2905      5696.7519      12.628762      21.873657      20.622682    
      1500   431.95072     -1820.4261      24.06446      -1796.3617     -6286.8975      5732.8744      12.655398      21.919792      20.666179    
      2000   398.36892     -1819.6422      22.19358      -1797.4486      1379.6227      5716.4217      12.64328       21.898803      20.64639     
      2500   388.54796     -1820.7374      21.646443     -1799.091      -6246.3928      5729.2247      12.652712      21.91514       20.661792    
      3000   398.00466     -1818.734       22.173287     -1796.5607      2796.5904      5693.5285      12.626379      21.869531      20.618791    
      3500   403.79351     -1821.473       22.49579      -1798.9773      417.82838      5686.7371      12.621357      21.860832      20.61059     
      4000   395.88848     -1822.4609      22.055392     -1800.4055     -613.82935      5680.8656      12.617012      21.853305      20.603494    
      4500   379.05217     -1821.7904      21.117422     -1800.673       2509.718       5664.7537      12.605072      21.832626      20.583997    
      5000   372.35616     -1821.022       20.744379     -1800.2777      2143.8334      5671.0998      12.609778      21.840776      20.591681    
      5500   423.56382     -1821.0037      23.597216     -1797.4065      5319.4301      5670.8389      12.609584      21.840441      20.591365    
      6000   389.24025     -1820.7041      21.685011     -1799.0191     -5793.1998      5726.4051      12.650636      21.911544      20.658402    
      6500   379.56243     -1821.489       21.145849     -1800.3432      2489.6827      5673.6419      12.611662      21.844039      20.594757    
      7000   395.96749     -1822.5723      22.059793     -1800.5125      1312.2275      5655.2316      12.598006      21.820386      20.572457    
      7500   374.73401     -1822.5718      20.876852     -1801.695       16.120074      5680.4893      12.616733      21.852823      20.603039    
      8000   387.21566     -1821.31        21.572219     -1799.7378     -1993.7755      5700.2722      12.631363      21.878162      20.626929    
      8500   403.93304     -1819.9439      22.503563     -1797.4404      109.55025      5685.9729      12.620792      21.859852      20.609666    
      9000   414.49252     -1821.6711      23.091844     -1798.5792      4009.5409      5677.1863      12.614287      21.848586      20.599045    
      9500   381.20221     -1822.4825      21.237203     -1801.2453     -691.6968       5685.076       12.620128      21.858703      20.608583    
     10000   409.16039     -1824.968       22.794785     -1802.1732      2574.4792      5648.3359      12.592883      21.811513      20.564092    
     10500   391.7413      -1822.9941      21.824347     -1801.1697      690.93899      5669.4316      12.608541      21.838634      20.589662    
     11000   394.16159     -1824.3857      21.959184     -1802.4265      6968.4577      5648.6432      12.593112      21.811909      20.564465    
     11500   393.83943     -1823.0567      21.941237     -1801.1155     -313.66559      5681.3501      12.61737       21.853927      20.60408     
     12000   394.74168     -1822.3341      21.991502     -1800.3426     -4500.0973      5706.4883      12.635952      21.886111      20.634424    
     12500   398.82231     -1824.0572      22.218839     -1801.8383     -4310.7134      5710.2217      12.638707      21.890883      20.638923    
     13000   417.9129      -1826.2022      23.282397     -1802.9198      2641.285       5650.0359      12.594146      21.813701      20.566155    
     13500   408.08533     -1824.186       22.734892     -1801.4511     -1367.6282      5667.7423      12.607289      21.836465      20.587616    
     14000   393.55503     -1822.7907      21.925393     -1800.8653      6958.1491      5649.1258      12.59347       21.81253       20.565051    
     14500   392.18743     -1824.8836      21.849202     -1803.0344      4546.5654      5638.5677      12.58562       21.798933      20.552231    
     15000   375.45128     -1824.8204      20.916812     -1803.9036     -3880.4566      5676.0087      12.613415      21.847076      20.597621    
     15500   416.25042     -1824.8861      23.189778     -1801.6963      940.37456      5664.5259      12.604903      21.832333      20.583721    
     16000   381.14307     -1824.6835      21.233908     -1803.4495     -1216.8948      5683.538       12.61899       21.856732      20.606724    
     16500   387.92452     -1825.0011      21.611711     -1803.3894     -2648.7898      5675.3593      12.612934      21.846242      20.596835    
     17000   403.38308     -1824.1628      22.472924     -1801.6898      114.45445      5661.2968      12.602508      21.828184      20.579809    
     17500   385.61294     -1821.8556      21.48293      -1800.3727     -1959.3461      5690.1919      12.623912      21.865258      20.614763    
     18000   379.9225      -1822.0731      21.165909     -1800.9072     -4379.0641      5702.4541      12.632974      21.880953      20.62956     
     18500   385.17673     -1825.7761      21.458628     -1804.3175     -943.02574      5676.7385      12.613956      21.848012      20.598503    
     19000   404.17702     -1823.1431      22.517156     -1800.6259     -5865.5282      5716.1821      12.643103      21.898497      20.646101    
     19500   428.68002     -1824.0095      23.882245     -1800.1273     -5655.442       5689.6744      12.62353       21.864595      20.614138    
     20000   415.47064     -1823.8266      23.146336     -1800.6803     -4834.471       5674.9131      12.612603      21.84567       20.596295    
     20500   392.80346     -1824.0611      21.883522     -1802.1776      5817.1012      5661.6153      12.602744      21.828593      20.580195    
     21000   382.22954     -1823.754       21.294437     -1802.4595     -1360.3331      5676.7675      12.613977      21.848049      20.598538    
     21500   392.78685     -1825.642       21.882596     -1803.7594      8373.8246      5637.4844      12.584814      21.797536      20.550914    
     22000   429.09923     -1825.2008      23.9056       -1801.2952      3229.7829      5645.1411      12.590508      21.8074        20.560214    
     22500   385.88445     -1824.9996      21.498056     -1803.5016     -5162.3365      5679.4976      12.615999      21.851551      20.60184     
     23000   385.69324     -1825.2854      21.487404     -1803.798       2640.1428      5649.824       12.593989      21.813429      20.565898    
     23500   411.57456     -1823.3429      22.929281     -1800.4136     -6266.7307      5698.9514      12.630387      21.876472      20.625335    
     24000   402.3031      -1825.2932      22.412757     -1802.8805      1315.7898      5657.095       12.599389      21.822782      20.574717    
     24500   382.36185     -1824.9734      21.301808     -1803.6716      8382.9921      5621.7034      12.57306       21.777178      20.531721    
     25000   401.79846     -1824.522       22.384643     -1802.1374      878.10609      5646.0249      12.591165      21.808538      20.561287    
     25500   417.23598     -1825.2348      23.244685     -1801.9901      8346.9388      5625.4057      12.575819      21.781958      20.536227    
     26000   385.78428     -1825.5874      21.492475     -1804.0949     -8630.7726      5686.9264      12.621497      21.861074      20.610818    
     26500   395.53883     -1825.1785      22.035912     -1803.1426      1496.8238      5665.0082      12.605261      21.832953      20.584305    
     27000   414.98397     -1824.9867      23.119223     -1801.8675      3864.5893      5658.2058      12.600214      21.824211      20.576063    
     27500   422.35608     -1823.9215      23.529932     -1800.3915     -849.15503      5672.1667      12.610568      21.842145      20.592972    
     28000   390.78133     -1824.7367      21.770867     -1802.9658     -4233.1591      5700.4289      12.631478      21.878362      20.627118    
     28500   407.38962     -1827.5895      22.696133     -1804.8934      1247.9944      5643.4986      12.589287      21.805285      20.55822     
     29000   388.68396     -1827.3113      21.65402      -1805.6573      4187.2427      5611.3466      12.565334      21.763797      20.519104    
     29500   409.62098     -1825.3602      22.820445     -1802.5397     -646.33661      5662.5515      12.603439      21.829796      20.581329    
     30000   411.54747     -1827.5406      22.927772     -1804.6128      2130.2288      5643.5274      12.589309      21.805322      20.558255    
     30500   389.67474     -1827.4839      21.709217     -1805.7747      883.70202      5644.7781      12.590239      21.806933      20.559774    
     31000   431.67906     -1826.621       24.049325     -1802.5717     -2673.7644      5690.7021      12.62429       21.865911      20.615379    
     31500   422.02348     -1826.8371      23.511402     -1803.3257      302.45237      5649.1977      12.593524      21.812623      20.565138    
     32000   401.8467      -1827.5873      22.387331     -1805.1999      2233.5137      5630.6296      12.579711      21.788698      20.542582    
     32500   408.04165     -1828.1634      22.732458     -1805.431      -3889.4681      5671.2515      12.60989       21.84097       20.591864    
     33000   406.40991     -1828.6927      22.641552     -1806.0511      1552.7732      5635.6368      12.583439      21.795155      20.548669    
     33500   380.48548     -1826.8438      21.197273     -1805.6466      590.46336      5645.5181      12.590789      21.807886      20.560672    
     34000   381.51665     -1826.7618      21.254721     -1805.5071     -101.99539      5671.734       12.610248      21.84159       20.592448    
     34500   421.57617     -1828.2132      23.486482     -1804.7267     -2610.8883      5670.9346      12.609655      21.840564      20.591481    
     35000   434.57588     -1828.6828      24.21071      -1804.4721     -2062.2243      5661.7668      12.602857      21.828788      20.580379    
     35500   415.22479     -1828.98        23.132639     -1805.8473     -6096.4142      5669.5356      12.608618      21.838768      20.589787    
     36000   396.44447     -1827.4677      22.086366     -1805.3813      4088.0979      5628.6409      12.57823       21.786133      20.540163    
     36500   411.96904     -1826.7172      22.951258     -1803.766      -3942.7668      5653.6648      12.596842      21.818371      20.570557    
     37000   395.01538     -1826.6979      22.00675      -1804.6911     -2006.9859      5668.3883      12.607768      21.837294      20.588398    
     37500   396.54839     -1827.3926      22.092156     -1805.3005      4728.7193      5620.6892      12.572304      21.775869      20.530486    
     38000   399.42035     -1827.675       22.252156     -1805.4228      2383.8208      5626.8064      12.576863      21.783766      20.537931    
     38500   410.85481     -1826.437       22.889183     -1803.5478     -2228.4972      5664.0595      12.604558      21.831734      20.583156    
     39000   402.09678     -1826.2769      22.401263     -1803.8757      2168.3957      5640.3997      12.586982      21.801293      20.554456    
     39500   395.36678     -1826.7745      22.026327     -1804.7481      1180.6383      5644.4622      12.590004      21.806526      20.55939     
     40000   391.77873     -1827.6585      21.826433     -1805.832      -285.05099      5647.0383      12.591919      21.809843      20.562517    
     40500   390.31883     -1829.4121      21.7451       -1807.667       2170.0044      5634.9653      12.582939      21.794289      20.547853    
     41000   402.82375     -1828.3334      22.441763     -1805.8917      1616.0294      5631.0282      12.580008      21.789212      20.543066    
     41500   370.27108     -1828.7812      20.628217     -1808.1529     -1438.03        5625.0584      12.57556       21.781509      20.535804    
     42000   393.3206      -1828.5971      21.912332     -1806.6848      981.83978      5619.7568      12.571608      21.774664      20.529351    
     42500   401.11222     -1828.8378      22.346412     -1806.4914      8146.3375      5590.5469      12.549789      21.736873      20.49372     
     43000   427.5271      -1825.6876      23.818014     -1801.8695      794.5568       5665.6204      12.605715      21.833739      20.585047    
     43500   400.23214     -1828.5792      22.297382     -1806.2818     -211.32546      5638.3612      12.585466      21.798666      20.55198     
     44000   370.18304     -1828.972       20.623313     -1808.3487     -3116.4927      5659.9523      12.60151       21.826456      20.57818     
     44500   413.82197     -1827.1789      23.054486     -1804.1244      1741.9102      5658.0717      12.600114      21.824038      20.5759      
     45000   408.91813     -1827.4556      22.781288     -1804.6743     -3197.6869      5663.1136      12.603856      21.830519      20.58201     
     45500   385.55235     -1827.853       21.479554     -1806.3735      4768.0444      5613.6113      12.567024      21.766724      20.521864    
     46000   388.15269     -1828.4747      21.624422     -1806.8503     -807.97127      5653.7162      12.59688       21.818437      20.570619    
     46500   393.40859     -1828.6213      21.917234     -1806.704      -5440.59        5667.9896      12.607472      21.836782      20.587916    
     47000   416.77585     -1826.4999      23.21905      -1803.2808     -973.80028      5634.755       12.582782      21.794018      20.547597    
     47500   380.4448      -1825.5019      21.195007     -1804.3069     -1561.0098      5653.5453      12.596753      21.818217      20.570412    
     48000   403.15679     -1828.2629      22.460317     -1805.8026     -2213.3633      5646.8732      12.591796      21.80963       20.562317    
     48500   419.3166      -1829.3045      23.360598     -1805.9439      982.32161      5624.066       12.574821      21.780229      20.534596    
     49000   401.72091     -1827.1677      22.380323     -1804.7874     -617.9756       5647.8275      12.592505      21.810859      20.563475    
     49500   411.27452     -1827.4562      22.912565     -1804.5436     -5967.0981      5672.7008      12.610964      21.842831      20.593618    
     50000   389.16341     -1828.2814      21.680731     -1806.6007      8177.2557      5576.4971      12.539267      21.718648      20.476538    
Loop time of 417.12 on 8 procs for 50000 steps with 432 atoms

Performance: 10.357 ns/day, 2.317 hours/ns, 119.870 timesteps/s, 51.784 katom-step/s
89.0% CPU use with 1 MPI tasks x 8 OpenMP threads

MPI task timing breakdown:
Section |  min time  |  avg time  |  max time  |%varavg| %total
---------------------------------------------------------------
Pair    | 362.94     | 362.94     | 362.94     |   0.0 | 87.01
Neigh   | 0.00658    | 0.00658    | 0.00658    |   0.0 |  0.00
Comm    | 0.39646    | 0.39646    | 0.39646    |   0.0 |  0.10
Output  | 0.006662   | 0.006662   | 0.006662   |   0.0 |  0.00
Modify  | 53.7       | 53.7       | 53.7       |   0.0 | 12.87
Other   |            | 0.06756    |            |       |  0.02

Nlocal:            432 ave         432 max         432 min
Histogram: 1 0 0 0 0 0 0 0 0 0
Nghost:           2620 ave        2620 max        2620 min
Histogram: 1 0 0 0 0 0 0 0 0 0
Neighs:          35427 ave       35427 max       35427 min
Histogram: 1 0 0 0 0 0 0 0 0 0
FullNghs:        70854 ave       70854 max       70854 min
Histogram: 1 0 0 0 0 0 0 0 0 0

Total # of neighbors = 70854
Ave neighs/atom = 164.01389
Neighbor list builds = 7
Dangerous builds = 0

=== FINAL RESULTS: HCP at 400 K ===
Atoms: 432 | PE/atom: -4.23117780356113 eV/atom
WARNING: Detected non-ASCII characters in input. Will try to continue by replacing with ASCII equivalents where known. (src/input.cpp:479)
Volume: 5576.49705720355 …³ | Area: 272.335934480312 ²
==========================================
HCP 400 432 -4.23117780356113 5576.49705720355 12.5392673237083 21.7186481035778 20.4765378019061 272.335934480312
Simulation complete!
Total wall time: 0:09:40
