LAMMPS (10 Sep 2025)
  using 8 OpenMP thread(s) per MPI task
Loaded 1 plugins from C:\Users\J.Shiva\AppData\Local\LAMMPS 64-bit 10Sep2025\plugins
using multi-threaded neighbor list subroutines
Reading data file ...
  orthogonal box = (0 0 0) to (15.810625 27.384805 25.818642)
  1 by 1 by 1 MPI processor grid
  reading atoms ...
  432 atoms
  read_data CPU = 0.016 seconds
=== STAGE 1: Energy Minimization ===
Switching to 'neigh_modify every 1 delay 0 check yes' setting during minimization
No /omp style for force computation currently active
Neighbor list info ...
  update: every = 1 steps, delay = 0 steps, check = yes
  max neighbors/atom: 4000, page size: 100000
  master list distance cutoff = 8
  ghost atom cutoff = 8
  binsize = 4, bins = 4 7 7
  2 neighbor lists, perpetual/occasional/extra = 2 0 0
  (1) pair meam, perpetual
      attributes: full, newton on, omp
      pair build: full/bin/atomonly/omp
      stencil: full/bin/3d
      bin: standard
  (2) pair meam, perpetual, half/full from (1)
      attributes: half, newton on, omp
      pair build: halffull/newton/omp
      stencil: none
      bin: none
Setting up cg style minimization ...
  Unit style    : metal
  Current step  : 0
Per MPI rank memory allocation (min/avg/max) = 19.33 | 19.33 | 19.33 Mbytes
   Step          Temp          PotEng         KinEng         TotEng         Press          Volume           Lx             Ly             Lz      
         0   0             -1194.3407      0             -1194.3407     -49683.972      11178.72       15.810625      27.384805      25.818642    
       240   0             -1542.6676      0             -1542.6676     -48332.259      11178.72       15.810625      27.384805      25.818642    
Loop time of 2.38311 on 8 procs for 240 steps with 432 atoms

95.1% CPU use with 1 MPI tasks x 8 OpenMP threads

Minimization stats:
  Stopping criterion = energy tolerance
  Energy initial, next-to-last, final = 
     -1194.34069667499  -1542.66763124979  -1542.66764491352
  Force two-norm initial, final = 43.919275 5.0711567
  Force max component initial, final = 6.7124332 2.4266157
  Final line search alpha, max atom move = 0.0029126166 0.007067801
  Iterations, force evaluations = 240 627

MPI task timing breakdown:
Section |  min time  |  avg time  |  max time  |%varavg| %total
---------------------------------------------------------------
Pair    | 2.2083     | 2.2083     | 2.2083     |   0.0 | 92.66
Neigh   | 0.005377   | 0.005377   | 0.005377   |   0.0 |  0.23
Comm    | 0.003999   | 0.003999   | 0.003999   |   0.0 |  0.17
Output  | 0          | 0          | 0          |   0.0 |  0.00
Modify  | 0.15808    | 0.15808    | 0.15808    |   0.0 |  6.63
Other   |            | 0.007383   |            |       |  0.31

Nlocal:            432 ave         432 max         432 min
Histogram: 1 0 0 0 0 0 0 0 0 0
Nghost:           1783 ave        1783 max        1783 min
Histogram: 1 0 0 0 0 0 0 0 0 0
Neighs:          17824 ave       17824 max       17824 min
Histogram: 1 0 0 0 0 0 0 0 0 0
FullNghs:        35648 ave       35648 max       35648 min
Histogram: 1 0 0 0 0 0 0 0 0 0

Total # of neighbors = 35648
Ave neighs/atom = 82.518519
Neighbor list builds = 7
Dangerous builds = 0
Minimized PE/atom: -3.57098991878131 eV/atom
=== STAGE 2: NPT Equilibration at 400 K ===
No /omp style for force computation currently active
Setting up Verlet run ...
  Unit style    : metal
  Current step  : 0
  Time step     : 0.002
Per MPI rank memory allocation (min/avg/max) = 18.23 | 18.23 | 18.23 Mbytes
   Step          Temp          PotEng         KinEng         TotEng         Press          Volume           Lx             Ly             Lz      
         0   400           -1542.6676      22.284449     -1520.3832     -46202.998      11178.72       15.810625      27.384805      25.818642    
       500   747.94721     -1704.2315      41.668979     -1662.5625      3884.2861      6907.8154      13.466826      23.325227      21.991234    
      1000   408.81046     -1756.5625      22.77529      -1733.7872      912.91858      6486.5284      13.187297      22.841068      21.534765    
      1500   444.14048     -1767.6055      24.743565     -1742.862       1240.6785      6327.9308      13.078931      22.653373      21.357805    
      2000   382.89704     -1785.7765      21.331624     -1764.4449     -2827.8619      6232.7232      13.013006      22.539187      21.250149    
      2500   386.97802     -1790.7048      21.55898      -1769.1458     -9617.7917      6226.4976      13.008671      22.53168       21.243071    
      3000   383.3778      -1791.1347      21.358408     -1769.7763     -2858.2809      6160.6088      12.962623      22.451921      21.167874    
      3500   417.06637     -1796.8998      23.235235     -1773.6646     -4409.9346      6134.7885      12.944488      22.42051       21.13826     
      4000   421.58544     -1798.3264      23.486998     -1774.8394     -2149.6734      6135.0676      12.944684      22.42085       21.13858     
      4500   393.02193     -1800.951       21.895693     -1779.0553      1559.7865      6111.3706      12.927996      22.391946      21.111329    
      5000   391.7494      -1805.8901      21.824799     -1784.0653     -2056.1041      6084.1783      12.908793      22.358686      21.079971    
      5500   391.52698     -1805.5159      21.812408     -1783.7035     -454.13068      6035.3945      12.874199      22.298767      21.023479    
      6000   408.98224     -1806.2647      22.784859     -1783.4798      8390.5163      5990.6076      12.842275      22.243472      20.971347    
      6500   411.22307     -1808.7237      22.909699     -1785.814      -1908.2235      6011.6918      12.857324      22.269538      20.995921    
      7000   394.03425     -1809.8888      21.95209      -1787.9367     -6126.8498      6040.6347      12.877924      22.305219      21.029562    
      7500   393.28184     -1810.6112      21.910173     -1788.701       3297.697       5997.5142      12.847208      22.252017      20.979403    
      8000   403.79139     -1809.9968      22.495671     -1787.5011     -3723.3054      6027.837       12.868823      22.289456      21.0147      
      8500   385.41135     -1812.2854      21.471699     -1790.8137     -539.96089      5989.4852      12.841473      22.242083      20.970037    
      9000   424.46078     -1811.875       23.647187     -1788.2279      903.85088      5964.7393      12.823763      22.21141       20.941118    
      9500   426.36081     -1811.581       23.753039     -1787.828      -1202.1549      5970.468       12.827867      22.218518      20.94782     
     10000   370.12085     -1811.2216      20.619848     -1790.6017     -1408.0424      5975.6306      12.831564      22.22492       20.953856    
     10500   410.58449     -1813.6565      22.874123     -1790.7824     -5160.8059      5983.6071      12.83727       22.234805      20.963175    
     11000   378.82345     -1810.8611      21.10468      -1789.7564     -149.44192      5966.8111      12.825248      22.213981      20.943542    
     11500   397.87474     -1811.5839      22.166048     -1789.4178     -1908.033       5982.3015      12.836337      22.233187      20.96165     
     12000   408.53136     -1812.4981      22.759741     -1789.7383      2807.7724      5966.1907      12.824803      22.213211      20.942816    
     12500   408.1098      -1814.2625      22.736255     -1791.5263      2433.4355      5961.614       12.821523      22.207529      20.93746     
     13000   399.17084     -1812.7695      22.238255     -1790.5312      816.14849      6000.893       12.84962       22.256195      20.983342    
     13500   407.65364     -1812.8151      22.710842     -1790.1043     -1598.7047      5976.6534      12.832296      22.226188      20.955051    
     14000   419.90584     -1814.4546      23.393426     -1791.0611     -4481.3436      5987.8224      12.840284      22.240025      20.968096    
     14500   390.25041     -1813.8783      21.741288     -1792.1371      5409.6767      5928.1004      12.797452      22.165838      20.898152    
     15000   390.20695     -1813.3304      21.738867     -1791.5916      221.47514      5953.749       12.815882      22.197759      20.928248    
     15500   393.50736     -1814.3658      21.922737     -1792.4431      102.1261       5926.1906      12.796078      22.163457      20.895908    
     16000   378.67878     -1812.8508      21.09662      -1791.7542     -177.28358      5964.7478      12.823769      22.21142       20.941128    
     16500   380.30869     -1812.003       21.187424     -1790.8156     -6191.7351      5981.6602      12.835878      22.232393      20.960901    
     17000   422.77434     -1811.7918      23.553233     -1788.2386     -2628.4799      5946.6576      12.810792      22.188943      20.919936    
     17500   380.40279     -1813.9484      21.192666     -1792.7557      466.5444       5947.0854      12.811099      22.189475      20.920437    
     18000   405.93066     -1815.3324      22.614853     -1792.7176      4839.4295      5889.8995      12.769904      22.118122      20.853166    
     18500   402.41747     -1812.8533      22.419129     -1790.4341     -1291.2501      5919.3994      12.791188      22.154988      20.887923    
     19000   388.00683     -1813.8153      21.616296     -1792.199      -3343.6533      5939.9475      12.805972      22.180594      20.912064    
     19500   411.86749     -1817.1257      22.9456       -1794.1801     -1995.1532      5929.9773      12.798803      22.168177      20.900357    
     20000   409.60679     -1815.9382      22.819654     -1793.1185      3128.3909      5898.187       12.775891      22.128492      20.862942    
Loop time of 155.36 on 8 procs for 20000 steps with 432 atoms

Performance: 22.245 ns/day, 1.079 hours/ns, 128.733 timesteps/s, 55.613 katom-step/s
88.8% CPU use with 1 MPI tasks x 8 OpenMP threads

MPI task timing breakdown:
Section |  min time  |  avg time  |  max time  |%varavg| %total
---------------------------------------------------------------
Pair    | 134.91     | 134.91     | 134.91     |   0.0 | 86.84
Neigh   | 0.026323   | 0.026323   | 0.026323   |   0.0 |  0.02
Comm    | 0.14876    | 0.14876    | 0.14876    |   0.0 |  0.10
Output  | 0.002974   | 0.002974   | 0.002974   |   0.0 |  0.00
Modify  | 20.241     | 20.241     | 20.241     |   0.0 | 13.03
Other   |            | 0.02761    |            |       |  0.02

Nlocal:            432 ave         432 max         432 min
Histogram: 1 0 0 0 0 0 0 0 0 0
Nghost:           2481 ave        2481 max        2481 min
Histogram: 1 0 0 0 0 0 0 0 0 0
Neighs:          33539 ave       33539 max       33539 min
Histogram: 1 0 0 0 0 0 0 0 0 0
FullNghs:        67078 ave       67078 max       67078 min
Histogram: 1 0 0 0 0 0 0 0 0 0

Total # of neighbors = 67078
Ave neighs/atom = 155.27315
Neighbor list builds = 31
Dangerous builds = 0
=== STAGE 3: NPT Production at 400 K ===
No /omp style for force computation currently active
Setting up Verlet run ...
  Unit style    : metal
  Current step  : 0
  Time step     : 0.001
Per MPI rank memory allocation (min/avg/max) = 18.6 | 18.6 | 18.6 Mbytes
   Step          Temp          PotEng         KinEng         TotEng         Press          Volume           Lx             Ly             Lz      
         0   409.60679     -1815.9382      22.819654     -1793.1185      3128.3909      5898.187       12.775891      22.128492      20.862942    
       500   383.73076     -1815.479       21.378071     -1794.1009     -1960.8854      5935.0404      12.802444      22.174484      20.906304    
      1000   404.51644     -1816.4307      22.536065     -1793.8947     -241.41499      5920.0421      12.791651      22.155789      20.888679    
      1500   398.05008     -1814.4525      22.175817     -1792.2767     -5875.3381      5943.0997      12.808237      22.184517      20.915763    
      2000   376.10793     -1814.9357      20.953395     -1793.9824     -1938.3541      5926.125       12.796031      22.163375      20.895831    
      2500   399.16418     -1817.7804      22.237884     -1795.5425     -2532.0544      5916.5976      12.78917       22.151491      20.884626    
      3000   411.80192     -1816.4977      22.941947     -1793.5557      2841.1279      5889.8143      12.769842      22.118016      20.853065    
      3500   413.35393     -1816.128       23.028412     -1793.0996      5126.6453      5873.8055      12.758262      22.097958      20.834155    
      4000   392.14664     -1815.5627      21.84693      -1793.7158     -3698.0327      5934.3975      12.801982      22.173683      20.905549    
      4500   401.93209     -1817.4261      22.392088     -1795.034       5092.8645      5866.2018      12.752755      22.088419      20.825161    
      5000   393.64039     -1818.1033      21.930148     -1796.1732      1528.5855      5870.8735      12.756139      22.094281      20.830688    
      5500   427.81127     -1816.6392      23.833846     -1792.8054      6471.221       5875.927       12.759798      22.100618      20.836663    
      6000   383.54331     -1815.5921      21.367628     -1794.2245     -4563.2675      5924.2865      12.794707      22.161083      20.893669    
      6500   385.98008     -1818.4127      21.503383     -1796.9093     -8606.626       5950.0076      12.813197      22.193108      20.923863    
      7000   377.49124     -1816.7341      21.030461     -1795.7037      1770.2884      5879.539       12.762412      22.105146      20.840932    
      7500   410.61351     -1816.7694      22.875739     -1793.8937     -2366.3079      5878.2931      12.76151       22.103585      20.839459    
      8000   436.90622     -1817.8473      24.340536     -1793.5067      4506.1261      5862.0213      12.749725      22.083171      20.820213    
      8500   384.79982     -1817.382       21.43763      -1795.9443      4421.8893      5850.5306      12.741388      22.068732      20.8066      
      9000   402.20826     -1818.669       22.407474     -1796.2615      756.58122      5858.851       12.747426      22.079189      20.816459    
      9500   398.07303     -1818.057       22.177095     -1795.8799      1684.3092      5851.7608      12.742281      22.070279      20.808058    
     10000   413.12923     -1817.6951      23.015893     -1794.6792     -2540.9501      5883.5731      12.76533       22.110201      20.845697    
     10500   384.92299     -1818.5009      21.444492     -1797.0564     -5511.6353      5877.284       12.76078       22.10232       20.838267    
     11000   400.60509     -1818.1517      22.318159     -1795.8336      1386.0953      5859.258       12.747721      22.0797        20.816941    
     11500   402.93329     -1817.6675      22.447866     -1795.2196      712.63209      5844.1386      12.736746      22.060692      20.79902     
     12000   392.4888      -1819.3144      21.865991     -1797.4484     -8011.2841      5885.9325      12.767036      22.113156      20.848483    
     12500   395.60329     -1819.1964      22.039503     -1797.1569     -1404.5047      5868.2686      12.754252      22.091013      20.827607    
     13000   384.67176     -1816.7223      21.430496     -1795.2918      3092.9606      5854.1474      12.744013      22.073279      20.810887    
     13500   393.17209     -1817.2276      21.904058     -1795.3236     -4736.6337      5882.1982      12.764336      22.108478      20.844073    
     14000   383.38401     -1818.2877      21.358754     -1796.9289     -2069.5443      5879.0681      12.762071      22.104556      20.840375    
     14500   369.12788     -1818.5018      20.564529     -1797.9373     -475.8267       5861.5376      12.749374      22.082563      20.81964     
     15000   414.91984     -1818.7555      23.11565      -1795.6399     -2366.3545      5886.9974      12.767806      22.114489      20.84974     
     15500   406.77497     -1818.8412      22.66189      -1796.1793      746.24951      5852.6921      12.742957      22.07145       20.809162    
     16000   379.49785     -1819.1492      21.142251     -1798.007       4218.3533      5852.1981      12.742599      22.070829      20.808577    
     16500   409.00812     -1819.7441      22.786301     -1796.9578      1964.1798      5854.2729      12.744104      22.073436      20.811035    
     17000   402.41512     -1819.0746      22.418998     -1796.6556     -3083.9156      5835.4426      12.730426      22.049745      20.788699    
     17500   418.22182     -1817.8115      23.299607     -1794.5119      3451.9985      5836.5248      12.731213      22.051108      20.789984    
     18000   378.09053     -1819.6031      21.063848     -1798.5393     -1716.932       5855.9921      12.745352      22.075597      20.813072    
     18500   359.98499     -1817.8203      20.055168     -1797.7652     -5848.2165      5885.2216      12.766522      22.112265      20.847644    
     19000   377.23991     -1817.8438      21.016459     -1796.8273      260.4624       5837.8394      12.732169      22.052763      20.791544    
     19500   388.81628     -1819.3785      21.661392     -1797.7171     -3046.9967      5866.9111      12.753269      22.089309      20.826       
     20000   407.03423     -1819.5329      22.676334     -1796.8565     -7243.1837      5913.7729      12.787134      22.147966      20.881302    
     20500   397.2561      -1820.2159      22.131583     -1798.0843      2824.1143      5861.0783      12.749041      22.081986      20.819096    
     21000   373.8606      -1819.3725      20.828194     -1798.5443      3280.0655      5855.9308      12.745307      22.07552       20.813       
     21500   396.20124     -1819.5664      22.072816     -1797.4936     -2130.3323      5891.6998      12.771205      22.120376      20.85529     
     22000   361.36225     -1819.0403      20.131896     -1798.9084     -1535.075       5895.3596      12.773849      22.124955      20.859608    
     22500   390.75984     -1820.6135      21.769669     -1798.8438     -990.82386      5878.2125      12.761452      22.103483      20.839364    
     23000   408.41516     -1820.2665      22.753267     -1797.5132      4438.8087      5886.4834      12.767435      22.113845      20.849133    
     23500   411.37866     -1820.511       22.918367     -1797.5926      3622.4175      5852.4195      12.742759      22.071107      20.808839    
     24000   408.28669     -1821.0681      22.74611      -1798.322      -3004.4465      5883.6762      12.765405      22.11033       20.845819    
     24500   413.59013     -1821.4776      23.04157      -1798.4361      2385.8882      5856.3244      12.745593      22.076015      20.813466    
     25000   367.25728     -1819.523       20.460316     -1799.0626      973.09356      5865.6781      12.752375      22.087762      20.824541    
     25500   399.89623     -1818.8151      22.278668     -1796.5365      5432.3739      5847.6905      12.739326      22.06516       20.803233    
     26000   409.44446     -1818.7371      22.81061      -1795.9265     -913.07954      5874.2942      12.758616      22.098571      20.834733    
     26500   417.70945     -1819.9043      23.271062     -1796.6333      1360.0258      5865.089       12.751948      22.087022      20.823844    
     27000   428.81663     -1819.9924      23.889856     -1796.1026      5926.3978      5856.321       12.74559       22.07601       20.813462    
     27500   386.33304     -1819.403       21.523048     -1797.88       -1080.2859      5884.7082      12.766151      22.111622      20.847037    
     28000   397.97582     -1819.9655      22.171679     -1797.7938     -1671.4138      5881.5797      12.763888      22.107703      20.843342    
     28500   392.484       -1818.5737      21.865724     -1796.7079      5547.5964      5854.9224      12.744576      22.074253      20.811805    
     29000   430.03261     -1818.4251      23.9576       -1794.4675     -2499.526       5899.7054      12.776987      22.13039       20.864732    
     29500   384.24893     -1819.7919      21.406939     -1798.3849      1125.0098      5885.8181      12.766954      22.113012      20.848348    
     30000   408.62298     -1820.8895      22.764845     -1798.1247      1315.4102      5841.2638      12.734658      22.057074      20.795609    
     30500   401.52455     -1818.7478      22.369383     -1796.3784     -9757.9093      5922.4764      12.793404      22.158826      20.891541    
     31000   407.3129      -1818.2946      22.691859     -1795.6027     -3364.1487      5884.934       12.766314      22.111905      20.847304    
     31500   392.36153     -1818.5257      21.858901     -1796.6668      6266.4266      5875.7205      12.759649      22.10036       20.836419    
     32000   386.91128     -1820.2674      21.555262     -1798.7121      1617.5281      5870.8885      12.75615       22.0943        20.830706    
     32500   407.04671     -1821.9625      22.677029     -1799.2855     -1870.251       5877.0256      12.760593      22.101996      20.837961    
     33000   397.26962     -1821.9177      22.132337     -1799.7854     -1414.0763      5868.3502      12.754311      22.091115      20.827703    
     33500   427.54365     -1820.7412      23.818937     -1796.9223     -5864.0107      5907.8835      12.782888      22.140611      20.874368    
     34000   404.51108     -1819.7356      22.535766     -1797.1999     -4430.2043      5913.5115      12.786946      22.147639      20.880995    
     34500   388.89614     -1819.8356      21.66584      -1798.1697     -2261.0737      5902.8023      12.779222      22.134262      20.868382    
     35000   415.94786     -1820.2359      23.172922     -1797.063      -5236.5465      5883.4551      12.765245      22.110053      20.845558    
     35500   441.92085     -1819.1905      24.619906     -1794.5706      1424.2486      5868.6378      12.75452       22.091476      20.828043    
     36000   382.50784     -1820.4982      21.309941     -1799.1883     -1646.1799      5885.539       12.766752      22.112663      20.848018    
     36500   384.19868     -1820.1024      21.40414      -1798.6983      3475.7018      5850.7233      12.741528      22.068974      20.806829    
     37000   395.14206     -1819.0364      22.013808     -1797.0226     -7501.5947      5916.6659      12.789219      22.151577      20.884707    
     37500   409.97141     -1819.0139      22.839968     -1796.1739     -3966.7389      5900.8314      12.7778        22.131798      20.866059    
     38000   409.11229     -1820.298       22.792105     -1797.5059     -2833.3396      5905.9041      12.78146       22.138138      20.872037    
     38500   389.0039      -1819.9463      21.671844     -1798.2744     -1653.6472      5871.2841      12.756436      22.094796      20.831173    
     39000   403.79078     -1821.5896      22.495638     -1799.094       3301.8952      5855.5263      12.745014      22.075012      20.812521    
     39500   410.36101     -1820.4274      22.861672     -1797.5657      630.39686      5859.1151      12.747617      22.079521      20.816772    
     40000   428.94341     -1818.6871      23.896919     -1794.7902      4269.841       5855.0022      12.744634      22.074353      20.8119      
     40500   400.8589      -1822.1753      22.332299     -1799.843       2084.5186      5852.626       12.742909      22.071366      20.809084    
     41000   387.78947     -1818.3453      21.604187     -1796.7411      2775.2077      5866.2572      12.752795      22.088488      20.825227    
     41500   412.03992     -1820.7907      22.955207     -1797.8355     -66.831439      5868.9597      12.754753      22.09188       20.828424    
     42000   367.83484     -1820.6314      20.492492     -1800.1389     -556.88409      5876.8301      12.760452      22.101751      20.83773     
     42500   406.33254     -1820.3372      22.637242     -1797.7        -2541.0912      5878.8607      12.761921      22.104296      20.84013     
     43000   408.36759     -1819.7671      22.750617     -1797.0165     -4146.7768      5901.4416      12.77824       22.132561      20.866779    
     43500   354.93268     -1820.928       19.773698     -1801.1543      809.28778      5879.6902      12.762521      22.105336      20.84111     
     44000   405.07049     -1821.2517      22.566932     -1798.6847      820.06809      5856.9985      12.746082      22.076862      20.814265    
     44500   400.84861     -1820.3938      22.331726     -1798.0621     -3284.0377      5888.6652      12.769012      22.116577      20.851709    
     45000   392.34002     -1820.685       21.857703     -1798.8273     -74.699203      5887.6996      12.768314      22.115368      20.850569    
     45500   411.96585     -1820.6614      22.95108      -1797.7103      8227.698       5827.3831      12.724563      22.039589      20.779124    
     46000   396.18135     -1818.6934      22.071708     -1796.6217     -5886.7079      5902.6274      12.779096      22.134043      20.868176    
     46500   404.43895     -1820.4688      22.531748     -1797.937      -1891.1204      5891.0918      12.770766      22.119615      20.854573    
     47000   400.91656     -1820.5145      22.335512     -1798.179       4742.3148      5845.8673      12.738002      22.062867      20.80107     
     47500   400.71652     -1820.7575      22.324367     -1798.4332      2746.3461      5868.6439      12.754524      22.091484      20.82805     
     48000   427.75934     -1819.4642      23.830953     -1795.6333     -1270.8346      5918.7654      12.790731      22.154197      20.887177    
     48500   407.03424     -1819.2833      22.676335     -1796.607      -3370.9136      5881.3039      12.763689      22.107358      20.843017    
     49000   420.83728     -1821.4469      23.445317     -1798.0016      9153.9347      5838.9159      12.732951      22.054118      20.792822    
     49500   382.02531     -1820.1443      21.283059     -1798.8612      7955.2623      5820.2598      12.719376      22.030605      20.770653    
     50000   395.60359     -1820.0959      22.03952      -1798.0564     -8557.023       5899.3945      12.776762      22.130001      20.864365    
Loop time of 417.256 on 8 procs for 50000 steps with 432 atoms

Performance: 10.353 ns/day, 2.318 hours/ns, 119.830 timesteps/s, 51.767 katom-step/s
88.0% CPU use with 1 MPI tasks x 8 OpenMP threads

MPI task timing breakdown:
Section |  min time  |  avg time  |  max time  |%varavg| %total
---------------------------------------------------------------
Pair    | 362.13     | 362.13     | 362.13     |   0.0 | 86.79
Neigh   | 0.008852   | 0.008852   | 0.008852   |   0.0 |  0.00
Comm    | 0.39824    | 0.39824    | 0.39824    |   0.0 |  0.10
Output  | 0.007022   | 0.007022   | 0.007022   |   0.0 |  0.00
Modify  | 54.644     | 54.644     | 54.644     |   0.0 | 13.10
Other   |            | 0.06974    |            |       |  0.02

Nlocal:            432 ave         432 max         432 min
Histogram: 1 0 0 0 0 0 0 0 0 0
Nghost:           2499 ave        2499 max        2499 min
Histogram: 1 0 0 0 0 0 0 0 0 0
Neighs:          33727 ave       33727 max       33727 min
Histogram: 1 0 0 0 0 0 0 0 0 0
FullNghs:        67454 ave       67454 max       67454 min
Histogram: 1 0 0 0 0 0 0 0 0 0

Total # of neighbors = 67454
Ave neighs/atom = 156.14352
Neighbor list builds = 10
Dangerous builds = 0

=== FINAL RESULTS: DHCP at 400 K ===
Atoms: 432 | PE/atom: -4.21285978555172 eV/atom
WARNING: Detected non-ASCII characters in input. Will try to continue by replacing with ASCII equivalents where known. (src/input.cpp:479)
Volume: 5899.39445782853 …³ | Area: 282.749766894909 ²
==========================================
DHCP 400 432 -4.21285978555172 5899.39445782853 12.7767622643898 22.1300014075524 20.8643654161569 282.749766894909
Simulation complete!
Total wall time: 0:09:35
