LAMMPS (10 Sep 2025)
  using 8 OpenMP thread(s) per MPI task
Loaded 1 plugins from C:\Users\J.Shiva\AppData\Local\LAMMPS 64-bit 10Sep2025\plugins
using multi-threaded neighbor list subroutines
Reading data file ...
  orthogonal box = (0 0 0) to (15.810625 27.384805 25.818642)
  1 by 1 by 1 MPI processor grid
  reading atoms ...
  432 atoms
  read_data CPU = 0.006 seconds
=== STAGE 1: Energy Minimization ===
Switching to 'neigh_modify every 1 delay 0 check yes' setting during minimization
No /omp style for force computation currently active
Neighbor list info ...
  update: every = 1 steps, delay = 0 steps, check = yes
  max neighbors/atom: 4000, page size: 100000
  master list distance cutoff = 8
  ghost atom cutoff = 8
  binsize = 4, bins = 4 7 7
  2 neighbor lists, perpetual/occasional/extra = 2 0 0
  (1) pair meam, perpetual
      attributes: full, newton on, omp
      pair build: full/bin/atomonly/omp
      stencil: full/bin/3d
      bin: standard
  (2) pair meam, perpetual, half/full from (1)
      attributes: half, newton on, omp
      pair build: halffull/newton/omp
      stencil: none
      bin: none
Setting up cg style minimization ...
  Unit style    : metal
  Current step  : 0
Per MPI rank memory allocation (min/avg/max) = 19.33 | 19.33 | 19.33 Mbytes
   Step          Temp          PotEng         KinEng         TotEng         Press          Volume           Lx             Ly             Lz      
         0   0             -1194.3407      0             -1194.3407     -49683.972      11178.72       15.810625      27.384805      25.818642    
       240   0             -1542.6676      0             -1542.6676     -48332.259      11178.72       15.810625      27.384805      25.818642    
Loop time of 2.23291 on 8 procs for 240 steps with 432 atoms

95.2% CPU use with 1 MPI tasks x 8 OpenMP threads

Minimization stats:
  Stopping criterion = energy tolerance
  Energy initial, next-to-last, final = 
     -1194.34069667499  -1542.66763124979  -1542.66764491352
  Force two-norm initial, final = 43.919275 5.0711567
  Force max component initial, final = 6.7124332 2.4266157
  Final line search alpha, max atom move = 0.0029126166 0.007067801
  Iterations, force evaluations = 240 627

MPI task timing breakdown:
Section |  min time  |  avg time  |  max time  |%varavg| %total
---------------------------------------------------------------
Pair    | 2.07       | 2.07       | 2.07       |   0.0 | 92.71
Neigh   | 0.00565    | 0.00565    | 0.00565    |   0.0 |  0.25
Comm    | 0.00369    | 0.00369    | 0.00369    |   0.0 |  0.17
Output  | 0          | 0          | 0          |   0.0 |  0.00
Modify  | 0.14692    | 0.14692    | 0.14692    |   0.0 |  6.58
Other   |            | 0.006614   |            |       |  0.30

Nlocal:            432 ave         432 max         432 min
Histogram: 1 0 0 0 0 0 0 0 0 0
Nghost:           1783 ave        1783 max        1783 min
Histogram: 1 0 0 0 0 0 0 0 0 0
Neighs:          17824 ave       17824 max       17824 min
Histogram: 1 0 0 0 0 0 0 0 0 0
FullNghs:        35648 ave       35648 max       35648 min
Histogram: 1 0 0 0 0 0 0 0 0 0

Total # of neighbors = 35648
Ave neighs/atom = 82.518519
Neighbor list builds = 7
Dangerous builds = 0
Minimized PE/atom: -3.57098991878131 eV/atom
=== STAGE 2: NPT Equilibration at 200 K ===
No /omp style for force computation currently active
Setting up Verlet run ...
  Unit style    : metal
  Current step  : 0
  Time step     : 0.002
Per MPI rank memory allocation (min/avg/max) = 18.23 | 18.23 | 18.23 Mbytes
   Step          Temp          PotEng         KinEng         TotEng         Press          Volume           Lx             Ly             Lz      
         0   200           -1542.6676      11.142224     -1531.5254     -47267.629      11178.72       15.810625      27.384805      25.818642    
       500   518.05797     -1730.2835      28.861591     -1701.422      -7757.3898      6723.0954      13.345702      23.115434      21.79344     
      1000   206.52135     -1777.5092      11.505536     -1766.0037     -1238.7082      6328.5987      13.079391      22.65417       21.358556    
      1500   196.7632      -1790.7232      10.961898     -1779.7613     -2963.6432      6219.1682      13.003565      22.522835      21.234733    
      2000   213.96455     -1791.1495      11.920205     -1779.2293     -994.96408      6175.8717      12.973319      22.470447      21.185341    
      2500   199.27953     -1793.9324      11.102086     -1782.8303      962.91833      6153.5123      12.957644      22.443297      21.159743    
      3000   188.91973     -1795.7895      10.52493      -1785.2646     -1957.3656      6153.6613      12.957748      22.443478      21.159914    
      3500   199.58756     -1796.4116      11.119247     -1785.2924     -1541.4708      6120.1823      12.934206      22.402703      21.121471    
      4000   221.5441      -1796.7678      12.34247      -1784.4253     -2053.9255      6125.1345      12.937694      22.408744      21.127166    
      4500   218.62019     -1797.13        12.179576     -1784.9504      4262.8113      6083.1769      12.908085      22.357459      21.078815    
      5000   195.50627     -1797.3183      10.891874     -1786.4264      2209.3427      6094.8867      12.916362      22.371796      21.092331    
      5500   188.3941      -1797.0819      10.495647     -1786.5863     -10.852462      6091.697       12.914109      22.367892      21.088651    
      6000   205.65318     -1797.075       11.457169     -1785.6179      3871.3507      6086.207       12.910228      22.361171      21.082314    
      6500   200.92524     -1796.68        11.193771     -1785.4862     -1901.6448      6128.4039      12.939996      22.41273       21.130924    
      7000   199.23135     -1800.2068      11.099402     -1789.1074     -2296.7235      6087.6097      12.91122       22.362888      21.083933    
      7500   193.9216      -1799.9915      10.80359      -1789.1879     -24.217868      6088.8433      12.912092      22.364399      21.085357    
      8000   200.55082     -1799.9118      11.172911     -1788.7389      579.19847      6081.292       12.906752      22.35515       21.076637    
      8500   211.38655     -1800.65        11.776582     -1788.8734      422.32252      6057.1538      12.889652      22.325533      21.048714    
      9000   216.54872     -1801.8083      12.064172     -1789.7441      2041.1118      6036.5716      12.875036      22.300217      21.024846    
      9500   190.14491     -1801.1423      10.593186     -1790.5491      675.69187      6049.6876      12.884354      22.316356      21.040062    
     10000   201.29983     -1801.1108      11.21464      -1789.8962      619.36824      6038.7915      12.876614      22.30295       21.027423    
     10500   198.96272     -1800.1176      11.084437     -1789.0332      3009.5025      6030.9603      12.871045      22.293305      21.018329    
     11000   201.44254     -1804.4348      11.22259      -1793.2122      769.04758      6020.4504      12.863565      22.280347      21.006113    
     11500   196.583       -1804.1257      10.951859     -1793.1738      1076.7583      6024.7615      12.866634      22.285664      21.011126    
     12000   193.60222     -1803.6566      10.785797     -1792.8708      1782.909       5998.4549      12.84788       22.253181      20.9805      
     12500   216.68032     -1804.4882      12.071504     -1792.4167      4483.7294      6020.9045      12.863888      22.280907      21.006641    
     13000   201.613       -1806.0442      11.232086     -1794.8121      1976.7791      6020.5074      12.863605      22.280418      21.006179    
     13500   208.70887     -1806.433       11.627405     -1794.8056      434.78832      5999.7509      12.848805      22.254783      20.982011    
     14000   208.91498     -1807.1747      11.638888     -1795.5358     -2667.5083      6024.1418      12.866193      22.2849        21.010405    
     14500   203.01128     -1807.8945      11.309986     -1796.5846      1828.6746      5946.1295      12.810413      22.188286      20.919316    
     15000   186.25812     -1807.751       10.376649     -1797.3744      2690.3292      5973.466       12.830014      22.222236      20.951325    
     15500   190.37758     -1807.7627      10.606149     -1797.1565     -2395.3013      5992.5112      12.843635      22.245828      20.973568    
     16000   201.13377     -1808.0198      11.205388     -1796.8144      6194.9622      5956.7046      12.818003      22.201432      20.931711    
     16500   204.22106     -1807.5187      11.377384     -1796.1413      2906.56        5962.2818      12.822002      22.208359      20.938241    
     17000   198.87881     -1808.5409      11.079762     -1797.4611      4702.4315      5939.2399      12.805463      22.179713      20.911234    
     17500   190.77725     -1808.9249      10.628415     -1798.2965      2672.7597      5950.4533      12.813517      22.193663      20.924386    
     18000   198.36276     -1809.0442      11.051012     -1797.9932     -17.280755      5968.3826      12.826374      22.215931      20.945381    
     18500   207.25503     -1810.5816      11.54641      -1799.0352      3260.0371      5942.823       12.808038      22.184172      20.915438    
     19000   206.41096     -1809.3724      11.499386     -1797.873       2219.5632      5945.0819      12.80966       22.186983      20.918088    
     19500   212.28982     -1809.5381      11.826904     -1797.7112     -4207.9796      5963.6884      12.82301       22.210105      20.939888    
     20000   192.68938     -1809.8181      10.734942     -1799.0832      44.264267      5945.1055      12.809677      22.187012      20.918115    
Loop time of 161.222 on 8 procs for 20000 steps with 432 atoms

Performance: 21.436 ns/day, 1.120 hours/ns, 124.052 timesteps/s, 53.591 katom-step/s
90.9% CPU use with 1 MPI tasks x 8 OpenMP threads

MPI task timing breakdown:
Section |  min time  |  avg time  |  max time  |%varavg| %total
---------------------------------------------------------------
Pair    | 140.13     | 140.13     | 140.13     |   0.0 | 86.92
Neigh   | 0.017392   | 0.017392   | 0.017392   |   0.0 |  0.01
Comm    | 0.16496    | 0.16496    | 0.16496    |   0.0 |  0.10
Output  | 0.00267    | 0.00267    | 0.00267    |   0.0 |  0.00
Modify  | 20.873     | 20.873     | 20.873     |   0.0 | 12.95
Other   |            | 0.03337    |            |       |  0.02

Nlocal:            432 ave         432 max         432 min
Histogram: 1 0 0 0 0 0 0 0 0 0
Nghost:           2478 ave        2478 max        2478 min
Histogram: 1 0 0 0 0 0 0 0 0 0
Neighs:          33403 ave       33403 max       33403 min
Histogram: 1 0 0 0 0 0 0 0 0 0
FullNghs:        66806 ave       66806 max       66806 min
Histogram: 1 0 0 0 0 0 0 0 0 0

Total # of neighbors = 66806
Ave neighs/atom = 154.64352
Neighbor list builds = 23
Dangerous builds = 0
=== STAGE 3: NPT Production at 200 K ===
No /omp style for force computation currently active
Setting up Verlet run ...
  Unit style    : metal
  Current step  : 0
  Time step     : 0.001
Per MPI rank memory allocation (min/avg/max) = 18.59 | 18.59 | 18.59 Mbytes
   Step          Temp          PotEng         KinEng         TotEng         Press          Volume           Lx             Ly             Lz      
         0   192.68938     -1809.8181      10.734942     -1799.0832      44.264267      5945.1055      12.809677      22.187012      20.918115    
       500   199.42082     -1810.5356      11.109958     -1799.4256     -3989.1392      5974.2759      12.830594      22.223241      20.952272    
      1000   203.4205      -1810.2135      11.332784     -1798.8807      6043.8754      5944.5719      12.809294      22.186348      20.91749     
      1500   204.46893     -1809.9525      11.391193     -1798.5613     -1737.2626      5966.0687      12.824716      22.213059      20.942673    
      2000   194.44101     -1809.8391      10.832527     -1799.0066     -236.6635       5956.8014      12.818072      22.201552      20.931824    
      2500   193.53943     -1810.2338      10.782299     -1799.4515      1286.4113      5972.1343      12.829061      22.220585      20.949768    
      3000   197.48842     -1810.6335      11.002302     -1799.6312      4735.2854      5941.9345      12.807399      22.183067      20.914396    
      3500   198.8454      -1809.5598      11.0779       -1798.4819      1358.0874      5963.0592      12.822559      22.209324      20.939151    
      4000   207.21801     -1809.8365      11.544348     -1798.2921     -1550.7062      5978.2328      12.833426      22.228146      20.956897    
      4500   206.98529     -1809.5522      11.531383     -1798.0208      1940.9296      5966.076       12.824721      22.213069      20.942682    
      5000   196.40733     -1810.4194      10.942073     -1799.4773     -3119.9301      5966.1592      12.824781      22.213172      20.942779    
      5500   200.0941      -1810.5362      11.147467     -1799.3888     -659.98915      5959.8584      12.820264      22.205349      20.935404    
      6000   207.26437     -1808.8887      11.54693      -1797.3417      3837.1599      5946.3993      12.810607      22.188621      20.919633    
      6500   209.73713     -1810.3553      11.684691     -1798.6706      1302.767       5951.5351      12.814294      22.195007      20.925654    
      7000   196.20659     -1810.1266      10.93089      -1799.1957     -5338.178       5985.9718      12.838961      22.237733      20.965936    
      7500   190.78344     -1809.2536      10.62876      -1798.6248      1500.6097      5948.19        12.811892      22.190848      20.921733    
      8000   208.62866     -1809.8642      11.622937     -1798.2413      564.24659      5952.1646      12.814745      22.19579       20.926391    
      8500   205.3892      -1810.1645      11.442463     -1798.722      -860.67775      5944.5216      12.809258      22.186286      20.917431    
      9000   192.9069      -1810.1332      10.74706      -1799.3862      406.90957      5948.0758      12.81181       22.190706      20.921599    
      9500   198.35069     -1810.5736      11.05034      -1799.5232      2175.5312      5947.4748      12.811379      22.189959      20.920894    
     10000   207.60618     -1810.1872      11.565973     -1798.6212      124.46153      5960.8235      12.820956      22.206548      20.936534    
     10500   195.56864     -1809.0026      10.895348     -1798.1073      1570.2691      5957.1503      12.818322      22.201985      20.932233    
     11000   202.81915     -1810.2121      11.299282     -1798.9128      949.58171      5955.7771      12.817337      22.200279      20.930624    
     11500   199.38695     -1810.8982      11.108071     -1799.7901     -1515.7712      5947.3467      12.811287      22.1898        20.920744    
     12000   200.15167     -1810.2559      11.150674     -1799.1052      1932.2939      5962.9889      12.822509      22.209237      20.939069    
     12500   211.81889     -1809.8403      11.800668     -1798.0396     -1743.3801      5960.5456      12.820757      22.206203      20.936209    
     13000   194.80885     -1810.3644      10.85302      -1799.5114      712.34602      5953.3264      12.815579      22.197234      20.927753    
     13500   193.859       -1810.4351      10.800102     -1799.635       867.77643      5947.0312      12.81106       22.189407      20.920374    
     14000   212.76056     -1809.7077      11.85313      -1797.8546     -1059.8096      5961.0919      12.821149      22.206881      20.936848    
     14500   201.44958     -1810.783       11.222982     -1799.5601      328.46902      5938.7248      12.805093      22.179072      20.910629    
     15000   195.91813     -1810.7193      10.914819     -1799.8045      2227.5146      5921.8678      12.792966      22.158067      20.890826    
     15500   197.22462     -1809.8949      10.987605     -1798.9073      479.11536      5947.8604      12.811656      22.190439      20.921346    
     16000   205.83356     -1810.903       11.467219     -1799.4358      3247.806       5949.8933      12.813115      22.192966      20.923729    
     16500   200.8563      -1810.9812      11.18993      -1799.7912     -5372.517       5971.6904      12.828743      22.220034      20.949249    
     17000   199.811       -1810.3422      11.131695     -1799.2105      1841.0195      5954.7723      12.816616      22.199031      20.929447    
     17500   203.08228     -1811.0884      11.313942     -1799.7744      1750.2298      5964.6454      12.823696      22.211293      20.941008    
     18000   206.7191      -1810.6806      11.516553     -1799.164       125.86055      5961.7634      12.82163       22.207715      20.937635    
     18500   202.76566     -1809.6133      11.296303     -1798.317      -1166.4266      5951.2988      12.814124      22.194714      20.925377    
     19000   199.41291     -1809.9744      11.109517     -1798.8649     -664.03164      5964.7976      12.823805      22.211482      20.941186    
     19500   200.633       -1809.8502      11.17749      -1798.6727     -161.05263      5946.3405      12.810564      22.188548      20.919564    
     20000   197.86454     -1810.7637      11.023256     -1799.7405     -3127.1669      5979.3018      12.834191      22.229471      20.958146    
     20500   196.89794     -1811.1641      10.969405     -1800.1947      5144.1402      5923.8187      12.79437       22.1605        20.893119    
     21000   185.38014     -1810.5909      10.327736     -1800.2632     -2146.2407      5951.2683      12.814102      22.194676      20.925341    
     21500   197.04847     -1811.0205      10.977791     -1800.0427      5646.9858      5921.1584      12.792455      22.157182      20.889991    
     22000   190.88198     -1809.7998      10.634249     -1799.1655     -78.0012        5959.7896      12.820215      22.205264      20.935324    
     22500   207.82183     -1811.0139      11.577987     -1799.4359     -1690.2545      5946.567       12.810727      22.18883       20.91983     
     23000   193.56018     -1810.6676      10.783455     -1799.8842      645.40453      5948.4989      12.812114      22.191233      20.922095    
     23500   191.30559     -1809.9995      10.657849     -1799.3416     -4171.842       5979.1863      12.834108      22.229328      20.958011    
     24000   195.18655     -1811.249       10.874062     -1800.3749     -5006.9629      5971.7301      12.828771      22.220083      20.949296    
     24500   206.41989     -1811.1299      11.499884     -1799.63        4165.0499      5937.3456      12.804102      22.177354      20.90901     
     25000   203.66442     -1810.8275      11.346373     -1799.4812     -1123.9854      5973.6272      12.83013       22.222436      20.951514    
     25500   207.9111      -1810.7382      11.582961     -1799.1552     -1440.4966      5973.6199      12.830124      22.222427      20.951505    
     26000   207.35399     -1810.2749      11.551924     -1798.7229     -3399.9134      5967.986       12.82609       22.215439      20.944916    
     26500   203.51596     -1810.1015      11.338102     -1798.7634     -3707.9135      5973.8183      12.830266      22.222673      20.951737    
     27000   190.86414     -1810.5319      10.633256     -1799.8987      1848.9108      5939.7999      12.805866      22.18041       20.911891    
     27500   197.43824     -1810.6805      10.999506     -1799.681      -3189.11        5965.571       12.824359      22.212442      20.942091    
     28000   205.71512     -1810.3766      11.46062      -1798.916      -361.83689      5960.2153      12.82052       22.205793      20.935822    
     28500   204.54479     -1809.6258      11.39542      -1798.2303      145.06211      5947.947       12.811718      22.190546      20.921448    
     29000   208.62917     -1810.631       11.622965     -1799.008       2637.5295      5932.193       12.800397      22.170937      20.90296     
     29500   190.11196     -1810.4611      10.591351     -1799.8698      977.61323      5953.4243      12.815649      22.197356      20.927868    
     30000   191.6526      -1810.9863      10.677182     -1800.3092     -993.61557      5950.0988      12.813263      22.193222      20.92397     
     30500   204.34689     -1810.5847      11.384395     -1799.2003     -3504.3374      5946.9058      12.81097       22.189251      20.920227    
     31000   194.70718     -1811.4345      10.847355     -1800.5872     -173.43216      5945.8274      12.810196      22.18791       20.918962    
     31500   190.08509     -1811.2593      10.589854     -1800.6695     -521.97025      5953.5965      12.815773      22.19757       20.928069    
     32000   201.29521     -1810.9499      11.214382     -1799.7356      3662.2428      5909.8861      12.784332      22.143112      20.876727    
     32500   188.15338     -1809.8611      10.482236     -1799.3788     -2049.2276      5969.7549      12.827357      22.217633      20.946986    
     33000   211.99706     -1810.822       11.810594     -1799.0114      305.31637      5943.8367      12.808766      22.185433      20.916627    
     33500   207.73191     -1810.1137      11.572978     -1798.5408     -1427.3193      5971.3363      12.828489      22.219595      20.948835    
     34000   212.31373     -1810.6655      11.828236     -1798.8372      597.83791      5952.5504      12.815022      22.19627       20.926844    
     34500   205.11264     -1810.4951      11.427056     -1799.068       1471.8647      5942.4276      12.807754      22.18368       20.914974    
     35000   199.26441     -1810.5757      11.101244     -1799.4745     -3999.235       5976.5861      12.832248      22.226105      20.954972    
     35500   203.38773     -1811.58        11.330959     -1800.249       4688.5291      5917.0903      12.789525      22.152106      20.885206    
     36000   190.51331     -1811.4471      10.61371      -1800.8334     -1933.02        5945.3159      12.809828      22.187274      20.918362    
     36500   208.38401     -1810.9352      11.609307     -1799.3259     -779.49019      5940.7521      12.80655       22.181595      20.913008    
     37000   204.01572     -1810.4626      11.365945     -1799.0967      2210.2373      5932.2717      12.800453      22.171035      20.903053    
     37500   200.81859     -1811.0412      11.187829     -1799.8534      2126.7214      5933.9488      12.801659      22.173124      20.905022    
     38000   218.53508     -1810.7949      12.174835     -1798.6201     -2278.5731      5955.3085      12.817001      22.199697      20.930075    
     38500   205.56231     -1809.8694      11.452107     -1798.4173      702.06798      5943.8086      12.808746      22.185399      20.916594    
     39000   204.7146      -1810.8865      11.40488      -1799.4816      2964.7249      5937.9453      12.804533      22.178101      20.909714    
     39500   199.53942     -1811.0995      11.116565     -1799.9829     -1710.5066      5955.8045      12.817357      22.200314      20.930656    
     40000   197.67495     -1810.9199      11.012693     -1799.9072      1518.0604      5923.9747      12.794483      22.160694      20.893303    
     40500   213.28085     -1810.8366      11.882115     -1798.9545     -127.7187       5947.6511      12.811505      22.190178      20.921101    
     41000   218.20291     -1810.5128      12.156329     -1798.3565      1922.764       5954.7195      12.816579      22.198965      20.929385    
     41500   195.77615     -1811.0044      10.906909     -1800.0975      1205.3883      5930.4055      12.799111      22.16871       20.90086     
     42000   195.57731     -1811.1327      10.895832     -1800.2369      3031.9923      5923.9538      12.794468      22.160668      20.893278    
     42500   198.20461     -1810.2536      11.042202     -1799.2114     -1531.9163      5961.9444      12.82176       22.20794       20.937846    
     43000   213.97616     -1810.9911      11.920852     -1799.0702      3958.6812      5928.4335      12.797692      22.166253      20.898543    
     43500   191.61049     -1811.2223      10.674835     -1800.5474      964.88747      5941.8847      12.807364      22.183005      20.914337    
     44000   194.87431     -1810.9285      10.856666     -1800.0718      4517.4589      5936.6871      12.803628      22.176535      20.908237    
     44500   209.39698     -1811.4259      11.665741     -1799.7601      1827.8427      5933.169       12.801099      22.172153      20.904106    
     45000   223.27241     -1811.5607      12.438757     -1799.122      -1661.8745      5952.6904      12.815123      22.196444      20.927008    
     45500   202.28935     -1811.0829      11.269767     -1799.8131     -360.34939      5966.7292      12.825189      22.213879      20.943446    
     46000   198.13868     -1810.5615      11.038528     -1799.523       2366.2228      5933.4311      12.801287      22.17248       20.904414    
     46500   202.84856     -1810.2764      11.300921     -1798.9754     -2886.4043      5970.567       12.827938      22.218641      20.947935    
     47000   216.06797     -1810.2789      12.037389     -1798.2415      2389.3158      5950.8326      12.813789      22.194134      20.92483     
     47500   197.36042     -1810.5088      10.99517      -1799.5137      3053.3312      5937.9815      12.804559      22.178146      20.909757    
     48000   192.48596     -1810.5003      10.723609     -1799.7767     -2827.3432      5939.3638      12.805552      22.179867      20.911379    
     48500   202.54107     -1810.6785      11.28379      -1799.3947     -206.41932      5931.2319      12.799705      22.16974       20.901831    
     49000   202.78774     -1810.3176      11.297532     -1799.02        766.37205      5941.2255      12.80689       22.182184      20.913564    
     49500   202.85111     -1810.8086      11.301063     -1799.5076      725.90183      5943.8916      12.808805      22.185502      20.916692    
     50000   189.06952     -1810.7942      10.533275     -1800.2609     -5489.6353      5965.0101      12.823957      22.211746      20.941435    
Loop time of 393.566 on 8 procs for 50000 steps with 432 atoms

Performance: 10.977 ns/day, 2.186 hours/ns, 127.043 timesteps/s, 54.883 katom-step/s
89.1% CPU use with 1 MPI tasks x 8 OpenMP threads

MPI task timing breakdown:
Section |  min time  |  avg time  |  max time  |%varavg| %total
---------------------------------------------------------------
Pair    | 341.85     | 341.85     | 341.85     |   0.0 | 86.86
Neigh   | 0.000665   | 0.000665   | 0.000665   |   0.0 |  0.00
Comm    | 0.39805    | 0.39805    | 0.39805    |   0.0 |  0.10
Output  | 0.006188   | 0.006188   | 0.006188   |   0.0 |  0.00
Modify  | 51.245     | 51.245     | 51.245     |   0.0 | 13.02
Other   |            | 0.06447    |            |       |  0.02

Nlocal:            432 ave         432 max         432 min
Histogram: 1 0 0 0 0 0 0 0 0 0
Nghost:           2463 ave        2463 max        2463 min
Histogram: 1 0 0 0 0 0 0 0 0 0
Neighs:          33198 ave       33198 max       33198 min
Histogram: 1 0 0 0 0 0 0 0 0 0
FullNghs:        66396 ave       66396 max       66396 min
Histogram: 1 0 0 0 0 0 0 0 0 0

Total # of neighbors = 66396
Ave neighs/atom = 153.69444
Neighbor list builds = 1
Dangerous builds = 0

=== FINAL RESULTS: DHCP at 200 K ===
Atoms: 432 | PE/atom: -4.19163228052575 eV/atom
WARNING: Detected non-ASCII characters in input. Will try to continue by replacing with ASCII equivalents where known. (src/input.cpp:479)
Volume: 5965.01014165839 …³ | Area: 284.842478414213 ²
==========================================
DHCP 200 432 -4.19163228052575 5965.01014165839 12.8239573267859 22.2117456535239 20.941434630351 284.842478414213
Simulation complete!
Total wall time: 0:09:17
