LAMMPS (10 Sep 2025)
  using 8 OpenMP thread(s) per MPI task
Loaded 1 plugins from C:\Users\J.Shiva\AppData\Local\LAMMPS 64-bit 10Sep2025\plugins
using multi-threaded neighbor list subroutines
Reading data file ...
  orthogonal box = (0 0 0) to (15.810625 27.384805 25.818642)
  1 by 1 by 1 MPI processor grid
  reading atoms ...
  432 atoms
  read_data CPU = 0.004 seconds
=== STAGE 1: Energy Minimization ===
Switching to 'neigh_modify every 1 delay 0 check yes' setting during minimization
No /omp style for force computation currently active
Neighbor list info ...
  update: every = 1 steps, delay = 0 steps, check = yes
  max neighbors/atom: 4000, page size: 100000
  master list distance cutoff = 8
  ghost atom cutoff = 8
  binsize = 4, bins = 4 7 7
  2 neighbor lists, perpetual/occasional/extra = 2 0 0
  (1) pair meam, perpetual
      attributes: full, newton on, omp
      pair build: full/bin/atomonly/omp
      stencil: full/bin/3d
      bin: standard
  (2) pair meam, perpetual, half/full from (1)
      attributes: half, newton on, omp
      pair build: halffull/newton/omp
      stencil: none
      bin: none
Setting up cg style minimization ...
  Unit style    : metal
  Current step  : 0
Per MPI rank memory allocation (min/avg/max) = 19.33 | 19.33 | 19.33 Mbytes
   Step          Temp          PotEng         KinEng         TotEng         Press          Volume           Lx             Ly             Lz      
         0   0             -1194.3407      0             -1194.3407     -49683.972      11178.72       15.810625      27.384805      25.818642    
       240   0             -1542.6676      0             -1542.6676     -48332.259      11178.72       15.810625      27.384805      25.818642    
Loop time of 2.2407 on 8 procs for 240 steps with 432 atoms

92.0% CPU use with 1 MPI tasks x 8 OpenMP threads

Minimization stats:
  Stopping criterion = energy tolerance
  Energy initial, next-to-last, final = 
     -1194.34069667499  -1542.66763124979  -1542.66764491352
  Force two-norm initial, final = 43.919275 5.0711567
  Force max component initial, final = 6.7124332 2.4266157
  Final line search alpha, max atom move = 0.0029126166 0.007067801
  Iterations, force evaluations = 240 627

MPI task timing breakdown:
Section |  min time  |  avg time  |  max time  |%varavg| %total
---------------------------------------------------------------
Pair    | 2.0709     | 2.0709     | 2.0709     |   0.0 | 92.42
Neigh   | 0.005659   | 0.005659   | 0.005659   |   0.0 |  0.25
Comm    | 0.003884   | 0.003884   | 0.003884   |   0.0 |  0.17
Output  | 0          | 0          | 0          |   0.0 |  0.00
Modify  | 0.1534     | 0.1534     | 0.1534     |   0.0 |  6.85
Other   |            | 0.006887   |            |       |  0.31

Nlocal:            432 ave         432 max         432 min
Histogram: 1 0 0 0 0 0 0 0 0 0
Nghost:           1783 ave        1783 max        1783 min
Histogram: 1 0 0 0 0 0 0 0 0 0
Neighs:          17824 ave       17824 max       17824 min
Histogram: 1 0 0 0 0 0 0 0 0 0
FullNghs:        35648 ave       35648 max       35648 min
Histogram: 1 0 0 0 0 0 0 0 0 0

Total # of neighbors = 35648
Ave neighs/atom = 82.518519
Neighbor list builds = 7
Dangerous builds = 0
Minimized PE/atom: -3.57098991878131 eV/atom
=== STAGE 2: NPT Equilibration at 650 K ===
No /omp style for force computation currently active
Setting up Verlet run ...
  Unit style    : metal
  Current step  : 0
  Time step     : 0.002
Per MPI rank memory allocation (min/avg/max) = 18.23 | 18.23 | 18.23 Mbytes
   Step          Temp          PotEng         KinEng         TotEng         Press          Volume           Lx             Ly             Lz      
         0   650           -1542.6676      36.21223      -1506.4554     -44872.21       11178.72       15.810625      27.384805      25.818642    
       500   984.11057     -1679.4117      54.825905     -1624.5858     -441.91334      7390.5885      13.773512      23.856422      22.49205     
      1000   634.45515     -1742.8388      35.346209     -1707.4926     -2894.4817      6691.8491      13.324995      23.079568      21.759625    
      1500   658.46264     -1778.6749      36.683693     -1741.9912      4007.0636      6238.4141      13.016965      22.546045      21.256615    
      2000   641.9613      -1790.3645      35.764385     -1754.6001     -696.91588      6160.4376      12.962503      22.451713      21.167678    
      2500   678.35408     -1798.3245      37.791867     -1760.5326      4972.4724      6000.6695      12.849461      22.255919      20.983082    
      3000   687.02863     -1804.2697      38.275136     -1765.9946      3347.1291      5956.6094      12.817934      22.201314      20.931599    
      3500   666.17638     -1807.5095      37.113434     -1770.396      -1923.108       5946.3698      12.810585      22.188585      20.919598    
      4000   603.92689     -1808.3293      33.645445     -1774.6839     -551.38781      5906.4241      12.781835      22.138788      20.872649    
      4500   659.00719     -1811.6622      36.71403      -1774.9482     -6649.5595      5924.0526      12.794539      22.160791      20.893394    
      5000   671.65812     -1811.2902      37.418828     -1773.8713     -3573.3787      5875.1127      12.759209      22.099598      20.8357      
      5500   625.39802     -1816.0551      34.841626     -1781.2135     -2392.4329      5835.3405      12.730352      22.049616      20.788577    
      6000   635.33589     -1816.6771      35.395275     -1781.2818      1930.4394      5838.338       12.732531      22.053391      20.792136    
      6500   620.82569     -1819.5576      34.586896     -1784.9707     -1767.57        5835.1965      12.730247      22.049435      20.788406    
      7000   637.39622     -1819.7747      35.510059     -1784.2646      3926.646       5796.984       12.702398      22.001198      20.742928    
      7500   618.39209     -1824.1531      34.451317     -1789.7018     -420.90035      5781.9992      12.691443      21.982225      20.72504     
      8000   657.685       -1829.5139      36.64037      -1792.8736      3556.1291      5699.0634      12.63047       21.876615      20.625471    
      8500   621.61074     -1828.5536      34.630632     -1793.923      -5522.6844      5712.9201      12.640698      21.894331      20.642173    
      9000   619.89285     -1834.8873      34.534927     -1800.3524      3605.9531      5655.4987      12.598204      21.82073       20.572781    
      9500   646.38883     -1835.8922      36.011047     -1799.8811     -2927.5767      5697.274       12.629148      21.874325      20.623312    
     10000   635.39991     -1834.4181      35.398842     -1799.0192      619.02386      5689.0553      12.623072      21.863802      20.61339     
     10500   650.06393     -1833.8163      36.215791     -1797.6005     -4593.0305      5721.0497      12.646691      21.904711      20.65196     
     11000   656.20068     -1836.9812      36.557677     -1800.4235      884.64265      5646.9347      12.591842      21.80971       20.562391    
     11500   666.68198     -1839.1891      37.141601     -1802.0475      316.29024      5638.5226      12.585586      21.798874      20.552176    
     12000   643.11411     -1842.0336      35.828609     -1806.205      -3631.4997      5638.1842      12.585334      21.798438      20.551765    
     12500   649.71446     -1843.2151      36.196322     -1807.0188     -5181.0539      5649.5084      12.593754      21.813023      20.565515    
     13000   641.84045     -1846.2362      35.757652     -1810.4786     -3469.7364      5626.8252      12.576877      21.78379       20.537954    
     13500   629.82756     -1842.0049      35.0884       -1806.9165     -2090.8439      5626.3002      12.576486      21.783112      20.537315    
     14000   688.28901     -1844.6408      38.345354     -1806.2955     -709.222        5628.2635      12.577948      21.785646      20.539704    
     14500   664.14419     -1842.2784      37.000218     -1805.2782     -5890.8633      5654.1353      12.597192      21.818976      20.571128    
     15000   633.34786     -1843.067       35.28452      -1807.7825      10762.446      5580.3288      12.542139      21.723621      20.481227    
     15500   679.21393     -1844.7355      37.839771     -1806.8957      1439.6573      5631.6823      12.580495      21.790056      20.543862    
     16000   662.4568      -1842.5825      36.906212     -1805.6763      7393.9056      5597.9168      12.555302      21.74642       20.502722    
     16500   606.7074      -1844.9085      33.80035      -1811.1082      48.684838      5619.6843      12.571554      21.774571      20.529262    
     17000   588.15528     -1845.0697      32.766791     -1812.3029      7398.9433      5587.0001      12.547135      21.732275      20.489385    
     17500   640.61299     -1843.149       35.689269     -1807.4597     -6594.6303      5674.8705      12.612572      21.845615      20.596244    
     18000   675.20214     -1840.3652      37.616269     -1802.749      -271.39524      5620.4764      12.572145      21.775594      20.530227    
     18500   657.01498     -1845.4128      36.603042     -1808.8097     -2461.3264      5622.3842      12.573567      21.778057      20.532549    
     19000   671.18475     -1843.0131      37.392456     -1805.6207      4570.0317      5586.8758      12.547042      21.732114      20.489233    
     19500   671.77772     -1842.0218      37.425491     -1804.5963     -2273.7589      5675.6565      12.613154      21.846624      20.597194    
     20000   641.8605      -1843.3093      35.758769     -1807.5505      3531.2317      5621.7683      12.573108      21.777262      20.5318      
Loop time of 166.479 on 8 procs for 20000 steps with 432 atoms

Performance: 20.759 ns/day, 1.156 hours/ns, 120.135 timesteps/s, 51.898 katom-step/s
88.3% CPU use with 1 MPI tasks x 8 OpenMP threads

MPI task timing breakdown:
Section |  min time  |  avg time  |  max time  |%varavg| %total
---------------------------------------------------------------
Pair    | 145.12     | 145.12     | 145.12     |   0.0 | 87.17
Neigh   | 0.064975   | 0.064975   | 0.064975   |   0.0 |  0.04
Comm    | 0.15343    | 0.15343    | 0.15343    |   0.0 |  0.09
Output  | 0.002865   | 0.002865   | 0.002865   |   0.0 |  0.00
Modify  | 21.109     | 21.109     | 21.109     |   0.0 | 12.68
Other   |            | 0.0328     |            |       |  0.02

Nlocal:            432 ave         432 max         432 min
Histogram: 1 0 0 0 0 0 0 0 0 0
Nghost:           2577 ave        2577 max        2577 min
Histogram: 1 0 0 0 0 0 0 0 0 0
Neighs:          35099 ave       35099 max       35099 min
Histogram: 1 0 0 0 0 0 0 0 0 0
FullNghs:        70198 ave       70198 max       70198 min
Histogram: 1 0 0 0 0 0 0 0 0 0

Total # of neighbors = 70198
Ave neighs/atom = 162.49537
Neighbor list builds = 71
Dangerous builds = 0
=== STAGE 3: NPT Production at 650 K ===
No /omp style for force computation currently active
Setting up Verlet run ...
  Unit style    : metal
  Current step  : 0
  Time step     : 0.001
Per MPI rank memory allocation (min/avg/max) = 18.84 | 18.84 | 18.84 Mbytes
   Step          Temp          PotEng         KinEng         TotEng         Press          Volume           Lx             Ly             Lz      
         0   641.8605      -1843.3093      35.758769     -1807.5505      3531.2317      5621.7683      12.573108      21.777262      20.5318      
       500   660.14299     -1842.5753      36.777307     -1805.798      -2704.5564      5642.8714      12.588821      21.804477      20.557458    
      1000   613.42112     -1843.0784      34.174379     -1808.904       6046.4285      5603.5612      12.55952       21.753727      20.50961     
      1500   618.48169     -1844.5897      34.456309     -1810.1334     -84.358888      5650.3734      12.594397      21.814136      20.566564    
      2000   631.16561     -1839.6054      35.162945     -1804.4425      15179.714      5557.5454      12.525046      21.694017      20.453315    
      2500   682.6344      -1843.0654      38.030328     -1805.0351      3492.3758      5617.5         12.569925      21.771749      20.526602    
      3000   628.04793     -1841.0135      34.989255     -1806.0243     -1280.6685      5636.4447      12.58404       21.796196      20.549651    
      3500   650.99903     -1844.3156      36.267887     -1808.0477      2543.2307      5620.3222      12.57203       21.775395      20.530039    
      4000   605.28727     -1840.4602      33.721233     -1806.739      -7360.4956      5687.0403      12.621581      21.86122       20.610956    
      4500   670.04497     -1840.4107      37.328957     -1803.0817     -296.09378      5661.0972      12.60236       21.827927      20.579567    
      5000   691.41213     -1843.929       38.519346     -1805.4097      1968.8316      5599.6468      12.556595      21.74866       20.504833    
      5500   656.76995     -1841.7903      36.589391     -1805.2009     -2605.3803      5663.467       12.604118      21.830973      20.582439    
      6000   661.13593     -1844.3124      36.832625     -1807.4798      57.032016      5643.3428      12.589171      21.805084      20.558031    
      6500   621.06396     -1842.5001      34.60017      -1807.9        -4278.4493      5665.5252      12.605645      21.833617      20.584932    
      7000   660.01086     -1842.561       36.769946     -1805.7911      2414.8891      5612.9865      12.566558      21.765917      20.521103    
      7500   681.37565     -1842.3557      37.960202     -1804.3955     -3229.7367      5653.3004      12.596572      21.817902      20.570115    
      8000   650.14769     -1841.5958      36.220457     -1805.3753     -4236.7538      5659.5695      12.601226      21.825964      20.577716    
      8500   642.26651     -1844.8473      35.781388     -1809.0659     -3939.5768      5635.022       12.582981      21.794362      20.547922    
      9000   630.13105     -1841.3657      35.105308     -1806.2604      1158.4395      5645.5716      12.590829      21.807955      20.560737    
      9500   652.36556     -1841.0095      36.344017     -1804.6654      3656.6082      5635.3626      12.583234      21.794801      20.548336    
     10000   664.86292     -1841.6243      37.04026      -1804.584       10681.282      5583.188       12.54428       21.727331      20.484724    
     10500   641.98219     -1844.1701      35.765548     -1808.4045      2635.4362      5638.6784      12.585702      21.799075      20.552365    
     11000   638.65721     -1846.6001      35.58031      -1811.0198      2371.1677      5602.6469      12.558837      21.752544      20.508495    
     11500   606.68027     -1842.1672      33.798839     -1808.3683     -5678.0908      5663.3967      12.604066      21.830882      20.582353    
     12000   635.96705     -1845.0278      35.430438     -1809.5974     -673.08897      5623.3177      12.574263      21.779263      20.533686    
     12500   633.74731     -1841.3611      35.306774     -1806.0543     -2238.3686      5667.0385      12.606767      21.835561      20.586764    
     13000   629.98962     -1841.7716      35.097429     -1806.6742     -8637.5084      5676.7735      12.613982      21.848057      20.598546    
     13500   636.34992     -1843.764       35.451768     -1808.3122      3009.1986      5598.549       12.555774      21.747239      20.503493    
     14000   623.93722     -1845.2258      34.760243     -1810.4655     -5854.825       5629.648       12.57898       21.787432      20.541388    
     14500   620.97042     -1842.9235      34.594959     -1808.3285     -2564.3762      5641.0789      12.587488      21.802168      20.555281    
     15000   655.62975     -1846.5522      36.525869     -1810.0264      4721.5126      5578.6688      12.540895      21.721467      20.479196    
     15500   650.69926     -1844.496       36.251186     -1808.2448     -6783.8204      5660.928       12.602234      21.82771       20.579362    
     16000   652.374       -1844.5115      36.344488     -1808.167      -6152.2269      5653.616       12.596806      21.818308      20.570498    
     16500   629.06548     -1844.1792      35.045944     -1809.1333     -298.52627      5603.9158      12.559785      21.754186      20.510043    
     17000   642.36304     -1845.6837      35.786766     -1809.8969     -3492.1643      5621.393       12.572828      21.776777      20.531343    
     17500   637.6436      -1844.4668      35.523841     -1808.943       680.75642      5611.5788      12.565507      21.764097      20.519387    
     18000   653.98884     -1844.806       36.434452     -1808.3716     -5880.4862      5655.1173      12.597921      21.820239      20.572319    
     18500   646.18255     -1842.5826      35.999555     -1806.5831     -1219.403       5632.9363      12.581428      21.791673      20.545386    
     19000   657.83749     -1841.5763      36.648865     -1804.9274      2298.4516      5637.5878      12.584891      21.79767       20.55104     
     19500   690.88802     -1846.2602      38.490147     -1807.77        6137.5131      5587.3101      12.547367      21.732677      20.489764    
     20000   626.1998      -1846.7078      34.886294     -1811.8215     -821.98022      5602.4796      12.558712      21.752327      20.508291    
     20500   653.26309     -1846.1507      36.39402      -1809.7567     -1918.3436      5618.0913      12.570366      21.772513      20.527322    
     21000   632.33705     -1844.917       35.228207     -1809.6888     -2061.1163      5610.6405      12.564807      21.762884      20.518244    
     21500   661.22285     -1848.7434      36.837467     -1811.9059     -182.56309      5609.0238      12.5636        21.760793      20.516273    
     22000   617.18741     -1847.2064      34.384203     -1812.8222      7144.6615      5585.8618      12.546283      21.730799      20.487994    
     22500   672.68953     -1844.4326      37.476289     -1806.9563      4301.8084      5586.2149      12.546547      21.731257      20.488425    
     23000   676.4467      -1845.4822      37.685605     -1807.7966     -5124.7224      5651.5194      12.595249      21.81561       20.567955    
     23500   627.59963     -1844.8352      34.96428      -1809.8709     -11275.371      5663.0383      12.6038        21.830422      20.581919    
     24000   647.56805     -1843.8935      36.076743     -1807.8167      6823.1126      5598.799       12.555961      21.747563      20.503799    
     24500   631.4911      -1845.466       35.181078     -1810.285       80.177424      5647.4095      12.592195      21.810321      20.562968    
     25000   616.32045     -1847.2938      34.335904     -1812.9579     -2966.8813      5623.8972      12.574695      21.780011      20.534391    
     25500   616.81497     -1848.0389      34.363455     -1813.6755     -1788.4699      5621.8046      12.573135      21.777309      20.531844    
     26000   671.62933     -1846.4365      37.417224     -1809.0193      8337.143       5596.4289      12.554189      21.744493      20.500905    
     26500   657.03427     -1843.5693      36.604117     -1806.9652      2417.9637      5647.0039      12.591893      21.809799      20.562475    
     27000   639.67363     -1847.4641      35.636936     -1811.8272      269.68435      5599.604       12.556563      21.748605      20.504781    
     27500   622.75397     -1849.5435      34.694323     -1814.8492     -2282.6632      5604.9376      12.560548      21.755508      20.511289    
     28000   641.28097     -1847.1064      35.726483     -1811.3799     -2797.7749      5622.2028      12.573432      21.777823      20.532329    
     28500   695.40624     -1848.616       38.741862     -1809.8742      293.97155      5579.5814      12.541579      21.722652      20.480312    
     29000   685.24668     -1845.2544      38.175862     -1807.0785     -6460.7301      5652.6331      12.596076      21.817043      20.569306    
     29500   654.68255     -1849.3356      36.4731       -1812.8625     -2680.5047      5616.4888      12.569171      21.770443      20.52537     
     30000   617.53942     -1845.0744      34.403814     -1810.6706      2215.5001      5613.2206      12.566733      21.766219      20.521388    
     30500   628.08717     -1848.308       34.991441     -1813.3165     -1385.3234      5629.1245      12.57859       21.786757      20.540751    
     31000   620.99568     -1848.6619      34.596367     -1814.0656      2599.3697      5594.0602      12.552418      21.741425      20.498012    
     31500   658.51465     -1846.373       36.68659      -1809.6864     -817.16854      5626.3514      12.576524      21.783178      20.537377    
     32000   631.65715     -1849.5708      35.190329     -1814.3805     -4667.8353      5634.1898      12.582362      21.793289      20.54691     
     32500   607.5723      -1846.5289      33.848535     -1812.6804     -6591.3083      5654.3764      12.597371      21.819286      20.57142     
     33000   622.48426     -1846.3204      34.679297     -1811.6412     -2827.0097      5645.4261      12.59072       21.807767      20.56056     
     33500   646.21486     -1848.8806      36.001355     -1812.8792     -2932.1485      5618.0548      12.570339      21.772466      20.527278    
     34000   634.26878     -1847.3682      35.335826     -1812.0324     -6382.2578      5640.4899      12.58705       21.801409      20.554566    
     34500   648.73805     -1846.1175      36.141925     -1809.9756     -3454.0453      5602.6531      12.558842      21.752552      20.508502    
     35000   647.81077     -1848.0355      36.090265     -1811.9452      3282.9026      5574.8498      12.538033      21.716509      20.474521    
     35500   649.37614     -1848.6714      36.177474     -1812.494       2227.8994      5582.6841      12.543903      21.726677      20.484108    
     36000   669.83572     -1845.1844      37.3173       -1807.8671     -16078.971      5686.3059      12.621038      21.860279      20.610069    
     36500   661.06568     -1846.3485      36.828711     -1809.5198     -5011.2218      5631.5077      12.580365      21.789831      20.54365     
     37000   659.49477     -1846.5633      36.741194     -1809.8221      10914.886      5561.0173      12.527654      21.698533      20.457573    
     37500   608.82548     -1846.7206      33.918351     -1812.8023      6128.4593      5577.9646      12.540367      21.720553      20.478334    
     38000   614.93658     -1847.6204      34.258807     -1813.3616      1962.0024      5601.4469      12.55794       21.75099       20.50703     
     38500   695.43571     -1848.5104      38.743504     -1809.7669     -1213.6181      5602.154       12.558469      21.751906      20.507893    
     39000   627.91595     -1851.5068      34.981902     -1816.5249     -2188.6717      5599.5152      12.556496      21.74849       20.504673    
     39500   661.13094     -1851.4192      36.832347     -1814.5868     -6839.2456      5643.8132      12.589521      21.80569       20.558602    
     40000   647.3694      -1847.0426      36.065676     -1810.9769     -2365.6042      5607.7256      12.56263       21.759114      20.51469     
     40500   646.30683     -1850.8659      36.006479     -1814.8594     -2877.1489      5611.5925      12.565517      21.764115      20.519404    
     41000   609.49799     -1849.4531      33.955817     -1815.4973     -242.59549      5613.9995      12.567314      21.767226      20.522337    
     41500   664.48766     -1846.9345      37.019353     -1809.9152     -172.42976      5625.5493      12.575926      21.782143      20.536402    
     42000   649.0155      -1848.0383      36.157382     -1811.8809     -115.18858      5589.7086      12.549162      21.735786      20.492696    
     42500   652.66725     -1848.4734      36.360825     -1812.1125     -2886.3734      5629.338       12.578749      21.787032      20.541011    
     43000   655.95834     -1846.7383      36.544175     -1810.1941      65.640282      5591.2421      12.550309      21.737774      20.49457     
     43500   649.63737     -1846.8294      36.192027     -1810.6373     -2097.1985      5634.8423      12.582847      21.794131      20.547703    
     44000   662.34426     -1846.9264      36.899942     -1810.0264     -1011.0069      5629.4207      12.57881       21.787139      20.541111    
     44500   659.52768     -1845.7838      36.743027     -1809.0408      1755.9407      5596.6136      12.554327      21.744733      20.50113     
     45000   649.28457     -1848.6905      36.172372     -1812.5181     -527.12844      5624.8704      12.57542       21.781267      20.535575    
     45500   654.19653     -1847.3184      36.446023     -1810.8723     -851.67847      5607.2655      12.562287      21.758519      20.514129    
     46000   651.33246     -1845.5692      36.286462     -1809.2827     -5777.75        5657.376       12.599598      21.823144      20.575057    
     46500   679.64998     -1846.0119      37.864064     -1808.1478      9448.6772      5597.8412      12.555245      21.746322      20.502629    
     47000   657.96227     -1846.8533      36.655817     -1810.1975      5234.9832      5601.0116      12.557615      21.750427      20.506499    
     47500   641.35493     -1848.5451      35.730603     -1812.8145     -5435.0476      5638.372       12.585474      21.79868       20.551993    
     48000   606.62638     -1847.2259      33.795837     -1813.43        3270.2063      5592.3621      12.551147      21.739225      20.495938    
     48500   685.81944     -1848.5592      38.207771     -1810.3514      984.43651      5610.0406      12.564359      21.762108      20.517512    
     49000   693.87484     -1847.0338      38.656546     -1808.3772      2893.8572      5591.8342      12.550752      21.738541      20.495293    
     49500   630.69844     -1848.4924      35.136918     -1813.3555     -4645.3527      5646.2908      12.591363      21.808881      20.56161     
     50000   635.94327     -1848.6573      35.429113     -1813.2282     -3001.2507      5622.9486      12.573988      21.778786      20.533236    
Loop time of 433.54 on 8 procs for 50000 steps with 432 atoms

Performance: 9.964 ns/day, 2.409 hours/ns, 115.330 timesteps/s, 49.822 katom-step/s
88.9% CPU use with 1 MPI tasks x 8 OpenMP threads

MPI task timing breakdown:
Section |  min time  |  avg time  |  max time  |%varavg| %total
---------------------------------------------------------------
Pair    | 378.99     | 378.99     | 378.99     |   0.0 | 87.42
Neigh   | 0.016611   | 0.016611   | 0.016611   |   0.0 |  0.00
Comm    | 0.3952     | 0.3952     | 0.3952     |   0.0 |  0.09
Output  | 0.006797   | 0.006797   | 0.006797   |   0.0 |  0.00
Modify  | 54.065     | 54.065     | 54.065     |   0.0 | 12.47
Other   |            | 0.06789    |            |       |  0.02

Nlocal:            432 ave         432 max         432 min
Histogram: 1 0 0 0 0 0 0 0 0 0
Nghost:           2591 ave        2591 max        2591 min
Histogram: 1 0 0 0 0 0 0 0 0 0
Neighs:          34952 ave       34952 max       34952 min
Histogram: 1 0 0 0 0 0 0 0 0 0
FullNghs:        69904 ave       69904 max       69904 min
Histogram: 1 0 0 0 0 0 0 0 0 0

Total # of neighbors = 69904
Ave neighs/atom = 161.81481
Neighbor list builds = 19
Dangerous builds = 0

=== FINAL RESULTS: DHCP at 650 K ===
Atoms: 432 | PE/atom: -4.27710134814816 eV/atom
WARNING: Detected non-ASCII characters in input. Will try to continue by replacing with ASCII equivalents where known. (src/input.cpp:479)
Volume: 5622.94858744353 …³ | Area: 273.846192351555 ²
==========================================
DHCP 650 432 -4.27710134814816 5622.94858744353 12.5739879435111 21.7787859811712 20.5332363366402 273.846192351555
Simulation complete!
Total wall time: 0:10:02
