LAMMPS (10 Sep 2025)
  using 8 OpenMP thread(s) per MPI task
Loaded 1 plugins from C:\Users\harsh\Downloads\LAMMPS 64-bit 10Sep2025\plugins
using multi-threaded neighbor list subroutines
Reading data file ...
  orthogonal box = (0 0 0) to (21.915 21.915 21.915)
  1 by 1 by 1 MPI processor grid
  reading atoms ...
  864 atoms
  read_data CPU = 0.023 seconds
=== STAGE 1: Energy Minimization ===
Switching to 'neigh_modify every 1 delay 0 check yes' setting during minimization
No /omp style for force computation currently active
Neighbor list info ...
  update: every = 1 steps, delay = 0 steps, check = yes
  max neighbors/atom: 4000, page size: 100000
  master list distance cutoff = 8
  ghost atom cutoff = 8
  binsize = 4, bins = 6 6 6
  2 neighbor lists, perpetual/occasional/extra = 2 0 0
  (1) pair meam, perpetual
      attributes: full, newton on, omp
      pair build: full/bin/atomonly/omp
      stencil: full/bin/3d
      bin: standard
  (2) pair meam, perpetual, half/full from (1)
      attributes: half, newton on, omp
      pair build: halffull/newton/omp
      stencil: none
      bin: none
Setting up cg style minimization ...
  Unit style    : metal
  Current step  : 0
Per MPI rank memory allocation (min/avg/max) = 21.26 | 21.26 | 21.26 Mbytes
   Step          Temp          PotEng         KinEng         TotEng         Press          Volume           Lx             Ly             Lz      
         0   0             -3157.6358      0             -3157.6358      114544.95      10525.056      21.915         21.915         21.915       
        96   0             -3258.1856      0             -3258.1856      128570.26      10525.056      21.915         21.915         21.915       
Loop time of 3.20006 on 8 procs for 96 steps with 864 atoms

95.2% CPU use with 1 MPI tasks x 8 OpenMP threads

Minimization stats:
  Stopping criterion = energy tolerance
  Energy initial, next-to-last, final = 
     -3157.63578916281  -3258.18482636373   -3258.1856426495
  Force two-norm initial, final = 27.172115 2.566555
  Force max component initial, final = 1.803182 1.3138273
  Final line search alpha, max atom move = 0.11890664 0.15622279
  Iterations, force evaluations = 96 192

MPI task timing breakdown:
Section |  min time  |  avg time  |  max time  |%varavg| %total
---------------------------------------------------------------
Pair    | 3.1522     | 3.1522     | 3.1522     |   0.0 | 98.51
Neigh   | 0          | 0          | 0          |   0.0 |  0.00
Comm    | 0.00231    | 0.00231    | 0.00231    |   0.0 |  0.07
Output  | 0          | 0          | 0          |   0.0 |  0.00
Modify  | 0.043001   | 0.043001   | 0.043001   |   0.0 |  1.34
Other   |            | 0.002525   |            |       |  0.08

Nlocal:            864 ave         864 max         864 min
Histogram: 1 0 0 0 0 0 0 0 0 0
Nghost:           3767 ave        3767 max        3767 min
Histogram: 1 0 0 0 0 0 0 0 0 0
Neighs:          76032 ave       76032 max       76032 min
Histogram: 1 0 0 0 0 0 0 0 0 0
FullNghs:       152064 ave      152064 max      152064 min
Histogram: 1 0 0 0 0 0 0 0 0 0

Total # of neighbors = 152064
Ave neighs/atom = 176
Neighbor list builds = 0
Dangerous builds = 0
Minimized PE/atom: -3.771048197511 eV/atom
=== STAGE 2: NPT Equilibration at 200 K ===
No /omp style for force computation currently active
Setting up Verlet run ...
  Unit style    : metal
  Current step  : 0
  Time step     : 0.002
Per MPI rank memory allocation (min/avg/max) = 20.14 | 20.14 | 20.14 Mbytes
   Step          Temp          PotEng         KinEng         TotEng         Press          Volume           Lx             Ly             Lz      
         0   200           -3258.1856      22.310301     -3235.8753      130834.38      10525.056      21.915         21.915         21.915       
       500   223.10591     -3312.969       24.887801     -3288.0812     -177.21985      12883.667      23.442999      23.442999      23.442999    
      1000   200.97137     -3324.7204      22.418659     -3302.3017     -471.98973      13037.151      23.535724      23.535724      23.535724    
      1500   197.1209      -3328.8273      21.989133     -3306.8382     -1004.3869      13034.695      23.534246      23.534246      23.534246    
      2000   199.5307      -3332.227       22.25795      -3309.969       1054.2615      13020.578      23.525747      23.525747      23.525747    
      2500   199.83029     -3334.1991      22.291369     -3311.9077     -564.94259      13010.312      23.519562      23.519562      23.519562    
      3000   198.06081     -3336.0303      22.093982     -3313.9363     -755.52943      13051.366      23.544275      23.544275      23.544275    
      3500   206.66241     -3335.8886      23.053503     -3312.8351     -319.71371      13049.259      23.543008      23.543008      23.543008    
      4000   198.41597     -3336.9089      22.1336       -3314.7753     -161.38916      13052.462      23.544934      23.544934      23.544934    
      4500   203.17709     -3339.9449      22.66471      -3317.2802     -512.61179      13073.927      23.557834      23.557834      23.557834    
      5000   197.39747     -3340.7514      22.019984     -3318.7314     -806.95761      13087.897      23.566221      23.566221      23.566221    
      5500   189.33314     -3341.3248      21.120397     -3320.2044     -1038.4417      13082.14       23.562766      23.562766      23.562766    
      6000   199.26902     -3342.4781      22.228759     -3320.2494     -912.75352      13113.241      23.581423      23.581423      23.581423    
      6500   191.10446     -3343.3243      21.31799      -3322.0063      951.21337      13035.187      23.534542      23.534542      23.534542    
      7000   203.86416     -3344.0343      22.741354     -3321.2929     -1593.1669      13089.589      23.567237      23.567237      23.567237    
      7500   197.5154      -3345.2127      22.03314      -3323.1796      854.36022      13031.597      23.532381      23.532381      23.532381    
      8000   196.81665     -3346.2185      21.955194     -3324.2633     -900.56317      13061.507      23.550372      23.550372      23.550372    
      8500   198.37058     -3346.2553      22.128536     -3324.1268      1967.9092      13043.681      23.539653      23.539653      23.539653    
      9000   205.56139     -3346.243       22.930683     -3323.3123     -1075.9325      13127.259      23.589823      23.589823      23.589823    
      9500   204.18731     -3346.1801      22.777402     -3323.4027      1416.3059      13073.244      23.557423      23.557423      23.557423    
     10000   197.92824     -3348.0834      22.079193     -3326.0042     -178.30186      13055.054      23.546492      23.546492      23.546492    
     10500   202.45373     -3347.8891      22.584018     -3325.3051      389.03489      13077.402      23.559921      23.559921      23.559921    
     11000   200.29552     -3348.6645      22.343267     -3326.3212     -1892.0834      13080.726      23.561917      23.561917      23.561917    
     11500   197.1947      -3349.3886      21.997365     -3327.3913     -1776.7586      13073.497      23.557576      23.557576      23.557576    
     12000   200.50385     -3350.0291      22.366506     -3327.6626      1264.6149      13039.492      23.537133      23.537133      23.537133    
     12500   211.17641     -3349.7776      23.557047     -3326.2205     -1661.0396      13136.553      23.595389      23.595389      23.595389    
     13000   209.97482     -3350.3869      23.423007     -3326.9639      687.19844      13063.142      23.551354      23.551354      23.551354    
     13500   200.66279     -3351.0288      22.384236     -3328.6445     -3476.858       13152.836      23.605134      23.605134      23.605134    
     14000   196.36428     -3350.6768      21.904731     -3328.772      -339.21187      13091.691      23.568498      23.568498      23.568498    
     14500   196.79183     -3351.1439      21.952425     -3329.1915      625.36301      13071.236      23.556217      23.556217      23.556217    
     15000   198.68963     -3352.7443      22.164127     -3330.5801      370.06573      13052.992      23.545253      23.545253      23.545253    
     15500   208.79927     -3352.642       23.291873     -3329.3501      1341.5432      13063.88       23.551798      23.551798      23.551798    
     16000   201.76416     -3350.8709      22.507096     -3328.3638      1332.5593      13053.919      23.54581       23.54581       23.54581     
     16500   194.9018      -3351.5833      21.741589     -3329.8417     -1380.7459      13112.917      23.581229      23.581229      23.581229    
     17000   196.21115     -3352.7841      21.887649     -3330.8965     -1227.927       13058.373      23.548488      23.548488      23.548488    
     17500   202.25778     -3353.3707      22.56216      -3330.8085     -43.975254      13073.31       23.557463      23.557463      23.557463    
     18000   209.30631     -3353.4125      23.348434     -3330.0641      643.26355      13068.384      23.554504      23.554504      23.554504    
     18500   205.17415     -3354.6798      22.887486     -3331.7923      852.51506      13090.354      23.567696      23.567696      23.567696    
     19000   201.51656     -3355.1581      22.479475     -3332.6786      73.131579      13079.356      23.561094      23.561094      23.561094    
     19500   210.11802     -3354.1852      23.438982     -3330.7462      1067.7242      13045.85       23.540958      23.540958      23.540958    
     20000   203.13151     -3353.9258      22.659626     -3331.2662      831.87375      13075.803      23.55896       23.55896       23.55896     
Loop time of 328.765 on 8 procs for 20000 steps with 864 atoms

Performance: 10.512 ns/day, 2.283 hours/ns, 60.834 timesteps/s, 52.560 katom-step/s
94.0% CPU use with 1 MPI tasks x 8 OpenMP threads

MPI task timing breakdown:
Section |  min time  |  avg time  |  max time  |%varavg| %total
---------------------------------------------------------------
Pair    | 305.38     | 305.38     | 305.38     |   0.0 | 92.89
Neigh   | 0.035792   | 0.035792   | 0.035792   |   0.0 |  0.01
Comm    | 0.20495    | 0.20495    | 0.20495    |   0.0 |  0.06
Output  | 0.002491   | 0.002491   | 0.002491   |   0.0 |  0.00
Modify  | 23.091     | 23.091     | 23.091     |   0.0 |  7.02
Other   |            | 0.04913    |            |       |  0.01

Nlocal:            864 ave         864 max         864 min
Histogram: 1 0 0 0 0 0 0 0 0 0
Nghost:           3159 ave        3159 max        3159 min
Histogram: 1 0 0 0 0 0 0 0 0 0
Neighs:          61389 ave       61389 max       61389 min
Histogram: 1 0 0 0 0 0 0 0 0 0
FullNghs:       122778 ave      122778 max      122778 min
Histogram: 1 0 0 0 0 0 0 0 0 0

Total # of neighbors = 122778
Ave neighs/atom = 142.10417
Neighbor list builds = 21
Dangerous builds = 0
=== STAGE 3: NPT Production at 200 K ===
No /omp style for force computation currently active
Setting up Verlet run ...
  Unit style    : metal
  Current step  : 0
  Time step     : 0.001
Per MPI rank memory allocation (min/avg/max) = 20.14 | 20.14 | 20.14 Mbytes
   Step          Temp          PotEng         KinEng         TotEng         Press          Volume           Lx             Ly             Lz      
         0   203.13151     -3353.9258      22.659626     -3331.2662      831.87375      13075.803      23.55896       23.55896       23.55896     
       500   205.76748     -3355.8317      22.953673     -3332.878      -3842.9536      13107.901      23.578222      23.578222      23.578222    
      1000   202.29944     -3354.4646      22.566807     -3331.8978     -430.53531      13096.682      23.571493      23.571493      23.571493    
      1500   203.39536     -3355.9985      22.689059     -3333.3095      0.22286337     13093.322      23.569477      23.569477      23.569477    
      2000   196.22314     -3355.8024      21.888987     -3333.9134     -638.44171      13078.035      23.560301      23.560301      23.560301    
      2500   195.19099     -3355.7713      21.773848     -3333.9974     -942.16354      13093.23       23.569422      23.569422      23.569422    
      3000   203.98902     -3355.9014      22.755282     -3333.1461     -2006.2373      13117.525      23.583991      23.583991      23.583991    
      3500   196.85511     -3356.2483      21.959484     -3334.2888     -3009.7026      13122.239      23.586816      23.586816      23.586816    
      4000   195.37932     -3357.5282      21.794857     -3335.7334     -1926.6688      13124.884      23.5884        23.5884        23.5884      
      4500   201.25735     -3358.9955      22.450561     -3336.5449     -507.8059       13081.84       23.562585      23.562585      23.562585    
      5000   196.14168     -3356.3667      21.879899     -3334.4868      2036.9605      13013.851      23.521694      23.521694      23.521694    
      5500   201.85221     -3357.9747      22.516918     -3335.4578     -574.05026      13078.731      23.560719      23.560719      23.560719    
      6000   193.44178     -3356.896       21.578722     -3335.3173      685.49582      13070.538      23.555798      23.555798      23.555798    
      6500   198.93119     -3357.7735      22.191073     -3335.5824     -1273.5931      13075.516      23.558788      23.558788      23.558788    
      7000   203.58887     -3357.2246      22.710644     -3334.514      -393.97095      13068.923      23.554828      23.554828      23.554828    
      7500   200.44285     -3357.241       22.359701     -3334.8813     -741.17372      13082.717      23.563112      23.563112      23.563112    
      8000   199.8576      -3355.6557      22.294416     -3333.3613      881.90114      13057.257      23.547817      23.547817      23.547817    
      8500   199.82494     -3357.8776      22.290773     -3335.5868      646.33376      13052.846      23.545165      23.545165      23.545165    
      9000   200.7135      -3358.4379      22.389893     -3336.048      -594.62367      13059.005      23.548868      23.548868      23.548868    
      9500   195.74075     -3357.978       21.835175     -3336.1428      74.491267      13069.324      23.555069      23.555069      23.555069    
     10000   208.10716     -3357.7355      23.214667     -3334.5208      2392.6879      13020.578      23.525747      23.525747      23.525747    
     10500   212.22746     -3358.1047      23.674292     -3334.4305      2556.5467      13040.011      23.537445      23.537445      23.537445    
     11000   197.94836     -3358.0899      22.081438     -3336.0084     -1134.8266      13071.027      23.556092      23.556092      23.556092    
     11500   206.36192     -3357.4335      23.019983     -3334.4136      504.53532      13082.691      23.563096      23.563096      23.563096    
     12000   204.20224     -3357.9915      22.779067     -3335.2124      206.47288      13080.181      23.56159       23.56159       23.56159     
     12500   189.82661     -3358.3545      21.175444     -3337.179       2850.6562      13029.608      23.531184      23.531184      23.531184    
     13000   198.9029      -3359.053       22.187918     -3336.865       1723.7101      13040.338      23.537642      23.537642      23.537642    
     13500   185.73621     -3358.6262      20.719154     -3337.9071      124.17216      13062.032      23.550687      23.550687      23.550687    
     14000   202.8697      -3357.0332      22.63042      -3334.4028      445.13293      13057.957      23.548237      23.548237      23.548237    
     14500   199.72517     -3358.246       22.279644     -3335.9663     -1355.0243      13113.707      23.581703      23.581703      23.581703    
     15000   204.01206     -3359.7885      22.757852     -3337.0307      903.7913       13043.725      23.539679      23.539679      23.539679    
     15500   187.4547      -3357.7816      20.910853     -3336.8708      1182.1753      13040.929      23.537997      23.537997      23.537997    
     16000   197.18624     -3358.1902      21.996421     -3336.1938      874.95052      13059.848      23.549374      23.549374      23.549374    
     16500   208.92911     -3357.5478      23.306356     -3334.2415     -2032.4551      13084.816      23.564372      23.564372      23.564372    
     17000   198.83814     -3358.425       22.180694     -3336.2443     -2884.8778      13110.554      23.579812      23.579812      23.579812    
     17500   199.58254     -3359.7718      22.263733     -3337.5081      1641.5471      13052.113      23.544724      23.544724      23.544724    
     18000   187.8529      -3358.5417      20.955273     -3337.5864     -369.79345      13065.257      23.552625      23.552625      23.552625    
     18500   199.08829     -3358.3858      22.208598     -3336.1772      1498.2227      13059.818      23.549356      23.549356      23.549356    
     19000   193.50802     -3357.6258      21.586111     -3336.0397      922.75997      13052.45       23.544927      23.544927      23.544927    
     19500   199.67985     -3360.4636      22.274587     -3338.189       1452.1643      13052.981      23.545246      23.545246      23.545246    
     20000   193.54295     -3358.6874      21.590007     -3337.0974      21.047537      13072.168      23.556777      23.556777      23.556777    
     20500   203.46395     -3358.2212      22.69671      -3335.5245     -1022.1115      13055.613      23.546829      23.546829      23.546829    
     21000   201.7305      -3358.7349      22.503341     -3336.2315     -624.12938      13087.645      23.566071      23.566071      23.566071    
     21500   190.72654     -3359.2377      21.275833     -3337.9619      1640.1813      13045.387      23.540679      23.540679      23.540679    
     22000   204.48783     -3358.8492      22.810925     -3336.0383     -540.37156      13086.734      23.565523      23.565523      23.565523    
     22500   201.58489     -3360.1347      22.487098     -3337.6476     -1949.396       13104.662      23.57628       23.57628       23.57628     
     23000   193.74124     -3359.1901      21.612127     -3337.578       3193.7738      13025.6        23.528771      23.528771      23.528771    
     23500   193.60907     -3359.2778      21.597383     -3337.6804      870.44175      13049.872      23.543377      23.543377      23.543377    
     24000   204.63445     -3359.2205      22.827281     -3336.3933      1849.9056      13050.235      23.543595      23.543595      23.543595    
     24500   198.21117     -3359.2362      22.110754     -3337.1255      296.60386      13054.521      23.546172      23.546172      23.546172    
     25000   198.46602     -3360.1108      22.139183     -3337.9716      891.05382      13085.795      23.56496       23.56496       23.56496     
     25500   198.00047     -3359.045       22.08725      -3336.9578      1124.2241      13036.285      23.535203      23.535203      23.535203    
     26000   199.49468     -3359.1127      22.253931     -3336.8587     -1872.6242      13114.634      23.582258      23.582258      23.582258    
     26500   198.38523     -3359.2554      22.13017      -3337.1252      1740.1731      13018.36       23.524411      23.524411      23.524411    
     27000   206.6501      -3359.5108      23.05213      -3336.4587      1002.741       13037.806      23.536118      23.536118      23.536118    
     27500   199.08891     -3359.7637      22.208667     -3337.5551     -354.6961       13093.556      23.569617      23.569617      23.569617    
     28000   198.68478     -3359.9857      22.163586     -3337.8221      1585.3275      13017.799      23.524073      23.524073      23.524073    
     28500   197.1452      -3358.7242      21.991844     -3336.7324     -16.151167      13097.53       23.572002      23.572002      23.572002    
     29000   205.02697     -3360.675       22.871067     -3337.804      -1954.7347      13074.047      23.557906      23.557906      23.557906    
     29500   193.1909      -3359.7739      21.550735     -3338.2232      2416.8678      13033.629      23.533605      23.533605      23.533605    
     30000   200.14463     -3361.2138      22.326435     -3338.8874     -1353.8277      13064.01       23.551876      23.551876      23.551876    
     30500   198.72149     -3360.0089      22.167681     -3337.8412      495.36537      13040.615      23.537808      23.537808      23.537808    
     31000   203.27556     -3359.8906      22.675695     -3337.2149     -33.263358      13069.844      23.555381      23.555381      23.555381    
     31500   210.55852     -3360.6568      23.48812      -3337.1687     -277.01282      13080.335      23.561682      23.561682      23.561682    
     32000   202.7851      -3361.4171      22.620983     -3338.7961     -819.60385      13098.623      23.572658      23.572658      23.572658    
     32500   198.44318     -3361.3202      22.136635     -3339.1835     -765.58197      13094.056      23.569918      23.569918      23.569918    
     33000   197.93764     -3360.0005      22.080241     -3337.9203     -293.92795      13087.094      23.565739      23.565739      23.565739    
     33500   199.56609     -3360.706       22.261897     -3338.4441      374.02928      13065.863      23.552989      23.552989      23.552989    
     34000   198.43622     -3361.3383      22.135859     -3339.2024     -1044.2777      13082.125      23.562756      23.562756      23.562756    
     34500   196.12713     -3359.5832      21.878277     -3337.7049     -228.61227      13088.396      23.566521      23.566521      23.566521    
     35000   198.54077     -3359.8354      22.147522     -3337.6878     -1389.364       13114.067      23.581918      23.581918      23.581918    
     35500   190.47862     -3361.7546      21.248177     -3340.5064      771.34663      13050.667      23.543855      23.543855      23.543855    
     36000   206.28084     -3361.5393      23.010939     -3338.5284      2073.9779      13060.047      23.549494      23.549494      23.549494    
     36500   194.37216     -3358.9801      21.682507     -3337.2976      1520.9866      13039.176      23.536943      23.536943      23.536943    
     37000   197.23275     -3361.2149      22.00161      -3339.2133      1340.5112      13052.784      23.545127      23.545127      23.545127    
     37500   199.40016     -3361.808       22.243388     -3339.5646      336.78664      13054.3        23.546039      23.546039      23.546039    
     38000   206.00618     -3361.2287      22.980299     -3338.2484     -1095.741       13101.485      23.574374      23.574374      23.574374    
     38500   205.76988     -3360.9211      22.95394      -3337.9672     -481.52335      13098.391      23.572518      23.572518      23.572518    
     39000   198.05372     -3361.3444      22.093191     -3339.2512     -52.810598      13035.663      23.534829      23.534829      23.534829    
     39500   205.28462     -3361.1406      22.899808     -3338.2408     -31.566011      13105.57       23.576824      23.576824      23.576824    
     40000   204.29749     -3360.7105      22.789693     -3337.9208      165.43347      13078.621      23.560653      23.560653      23.560653    
     40500   190.85689     -3360.4599      21.290373     -3339.1695      91.794371      13061.473      23.550351      23.550351      23.550351    
     41000   191.20814     -3360.4798      21.329555     -3339.1502     -1090.6547      13098.69       23.572698      23.572698      23.572698    
     41500   206.56727     -3360.7464      23.04289      -3337.7035      1444.8821      13048.692      23.542667      23.542667      23.542667    
     42000   201.97983     -3361.2642      22.531154     -3338.733      -559.13455      13099.583      23.573233      23.573233      23.573233    
     42500   196.91787     -3361.1764      21.966485     -3339.2099      1280.8178      13075.996      23.559076      23.559076      23.559076    
     43000   201.50797     -3361.7564      22.478517     -3339.2779     -766.5096       13129.055      23.590899      23.590899      23.590899    
     43500   198.44335     -3360.2444      22.136654     -3338.1078     -1166.5265      13092.972      23.569267      23.569267      23.569267    
     44000   199.72626     -3361.4999      22.279765     -3339.2202     -1205.5237      13107.757      23.578136      23.578136      23.578136    
     44500   199.42737     -3360.4352      22.246423     -3338.1888      285.51367      13088.543      23.566609      23.566609      23.566609    
     45000   197.95076     -3361.392       22.081706     -3339.3102      640.3296       13067.817      23.554163      23.554163      23.554163    
     45500   199.00158     -3360.8134      22.198926     -3338.6144      1076.453       13051.912      23.544603      23.544603      23.544603    
     46000   198.9628      -3361.7476      22.194599     -3339.553       401.56198      13083.886      23.563814      23.563814      23.563814    
     46500   201.5656      -3362.0491      22.484946     -3339.5642     -2117.9319      13119.941      23.585439      23.585439      23.585439    
     47000   200.51556     -3360.9585      22.367813     -3338.5907     -3135.5542      13107.276      23.577847      23.577847      23.577847    
     47500   202.24026     -3360.8228      22.560205     -3338.2626     -654.81631      13081.113      23.562149      23.562149      23.562149    
     48000   194.02078     -3361.6425      21.64331      -3339.9992      1228.9995      13064.442      23.552135      23.552135      23.552135    
     48500   195.54456     -3361.3258      21.81329      -3339.5125      979.0245       13053.879      23.545786      23.545786      23.545786    
     49000   210.4195      -3361.2019      23.472612     -3337.7293      1429.5562      13054.575      23.546205      23.546205      23.546205    
     49500   203.03848     -3360.6635      22.649248     -3338.0143     -1000.2634      13104.238      23.576025      23.576025      23.576025    
     50000   190.78504     -3361.0883      21.282358     -3339.8059      241.85338      13087.218      23.565814      23.565814      23.565814    
Loop time of 824.06 on 8 procs for 50000 steps with 864 atoms

Performance: 5.242 ns/day, 4.578 hours/ns, 60.675 timesteps/s, 52.423 katom-step/s
93.5% CPU use with 1 MPI tasks x 8 OpenMP threads

MPI task timing breakdown:
Section |  min time  |  avg time  |  max time  |%varavg| %total
---------------------------------------------------------------
Pair    | 762.44     | 762.44     | 762.44     |   0.0 | 92.52
Neigh   | 0.008351   | 0.008351   | 0.008351   |   0.0 |  0.00
Comm    | 0.50971    | 0.50971    | 0.50971    |   0.0 |  0.06
Output  | 0.005729   | 0.005729   | 0.005729   |   0.0 |  0.00
Modify  | 60.973     | 60.973     | 60.973     |   0.0 |  7.40
Other   |            | 0.12       |            |       |  0.01

Nlocal:            864 ave         864 max         864 min
Histogram: 1 0 0 0 0 0 0 0 0 0
Nghost:           3182 ave        3182 max        3182 min
Histogram: 1 0 0 0 0 0 0 0 0 0
Neighs:          61316 ave       61316 max       61316 min
Histogram: 1 0 0 0 0 0 0 0 0 0
FullNghs:       122632 ave      122632 max      122632 min
Histogram: 1 0 0 0 0 0 0 0 0 0

Total # of neighbors = 122632
Ave neighs/atom = 141.93519
Neighbor list builds = 6
Dangerous builds = 0

=== FINAL RESULTS: FCC at 200 K ===
Atoms: 864 | PE/atom: -3.8904451097866 eV/atom
WARNING: Detected non-ASCII characters in input. Will try to continue by replacing with ASCII equivalents where known. (src/input.cpp:479)
Volume: 13087.2183681753 …³ | Area: 555.347599923713 ²
==========================================
FCC 200 864 -3.8904451097866 13087.2183681753 23.565814221531 23.565814221531 23.565814221531 555.347599923713
Simulation complete!
Total wall time: 0:19:16
