LAMMPS (10 Sep 2025)
  using 8 OpenMP thread(s) per MPI task
Loaded 1 plugins from C:\Users\harsh\Downloads\LAMMPS 64-bit 10Sep2025\plugins
using multi-threaded neighbor list subroutines
Reading data file ...
  orthogonal box = (0 0 0) to (22.95 22.95 22.95)
  1 by 1 by 1 MPI processor grid
  reading atoms ...
  864 atoms
  read_data CPU = 0.014 seconds
=== STAGE 1: Energy Minimization ===
Switching to 'neigh_modify every 1 delay 0 check yes' setting during minimization
No /omp style for force computation currently active
Neighbor list info ...
  update: every = 1 steps, delay = 0 steps, check = yes
  max neighbors/atom: 4000, page size: 100000
  master list distance cutoff = 8
  ghost atom cutoff = 8
  binsize = 4, bins = 6 6 6
  2 neighbor lists, perpetual/occasional/extra = 2 0 0
  (1) pair meam, perpetual
      attributes: full, newton on, omp
      pair build: full/bin/atomonly/omp
      stencil: full/bin/3d
      bin: standard
  (2) pair meam, perpetual, half/full from (1)
      attributes: half, newton on, omp
      pair build: halffull/newton/omp
      stencil: none
      bin: none
Setting up cg style minimization ...
  Unit style    : metal
  Current step  : 0
Per MPI rank memory allocation (min/avg/max) = 20.91 | 20.91 | 20.91 Mbytes
   Step          Temp          PotEng         KinEng         TotEng         Press          Volume           Lx             Ly             Lz      
         0   0             -3524.1518      0             -3524.1518     -162078.96      12087.822      22.95          22.95          22.95        
        40   0             -3598.2444      0             -3598.2444     -170307.21      12087.822      22.95          22.95          22.95        
Loop time of 1.21795 on 8 procs for 40 steps with 864 atoms

94.9% CPU use with 1 MPI tasks x 8 OpenMP threads

Minimization stats:
  Stopping criterion = energy tolerance
  Energy initial, next-to-last, final = 
     -3524.15177172717  -3598.24148250986  -3598.24438986269
  Force two-norm initial, final = 26.863913 0.38872339
  Force max component initial, final = 2.1291732 0.15252229
  Final line search alpha, max atom move = 0.96626524 0.14737699
  Iterations, force evaluations = 40 78

MPI task timing breakdown:
Section |  min time  |  avg time  |  max time  |%varavg| %total
---------------------------------------------------------------
Pair    | 1.1962     | 1.1962     | 1.1962     |   0.0 | 98.21
Neigh   | 0          | 0          | 0          |   0.0 |  0.00
Comm    | 0.001442   | 0.001442   | 0.001442   |   0.0 |  0.12
Output  | 0          | 0          | 0          |   0.0 |  0.00
Modify  | 0.01917    | 0.01917    | 0.01917    |   0.0 |  1.57
Other   |            | 0.001134   |            |       |  0.09

Nlocal:            864 ave         864 max         864 min
Histogram: 1 0 0 0 0 0 0 0 0 0
Nghost:           3767 ave        3767 max        3767 min
Histogram: 1 0 0 0 0 0 0 0 0 0
Neighs:          60480 ave       60480 max       60480 min
Histogram: 1 0 0 0 0 0 0 0 0 0
FullNghs:       120960 ave      120960 max      120960 min
Histogram: 1 0 0 0 0 0 0 0 0 0

Total # of neighbors = 120960
Ave neighs/atom = 140
Neighbor list builds = 0
Dangerous builds = 0
Minimized PE/atom: -4.16463471048923 eV/atom
=== STAGE 2: NPT Equilibration at 400 K ===
No /omp style for force computation currently active
Setting up Verlet run ...
  Unit style    : metal
  Current step  : 0
  Time step     : 0.002
Per MPI rank memory allocation (min/avg/max) = 19.88 | 19.88 | 19.88 Mbytes
   Step          Temp          PotEng         KinEng         TotEng         Press          Volume           Lx             Ly             Lz      
         0   400           -3598.2444      44.620602     -3553.6238     -166364.4       12087.822      22.95          22.95          22.95        
       500   403.61091     -3727.1779      45.023404     -3682.1545     -3761.575       9672.6573      21.306655      21.306655      21.306655    
      1000   417.66314     -3732.8918      46.590952     -3686.3008      1293.1287      9616.9486      21.265671      21.265671      21.265671    
      1500   405.72128     -3733.7114      45.258819     -3688.4526      74.182566      9603.5769      21.255811      21.255811      21.255811    
      2000   411.73367     -3735.5688      45.92951      -3689.6393      3442.3208      9595.0155      21.249492      21.249492      21.249492    
      2500   397.37898     -3735.5505      44.328224     -3691.2223      3312.2719      9591.1346      21.246627      21.246627      21.246627    
      3000   397.71092     -3736.7647      44.365252     -3692.3994     -1209.712       9593.7788      21.248579      21.248579      21.248579    
      3500   393.71041     -3732.432       43.918989     -3688.513       286.97062      9602.0791      21.254706      21.254706      21.254706    
      4000   402.0671      -3732.8422      44.85119      -3687.991       2943.8712      9594.2892      21.248956      21.248956      21.248956    
      4500   389.04736     -3735.2836      43.398819     -3691.8847     -29.181859      9584.3338      21.241604      21.241604      21.241604    
      5000   396.92556     -3736.8359      44.277643     -3692.5583      36.683231      9593.9633      21.248716      21.248716      21.248716    
      5500   382.75215     -3731.726       42.696578     -3689.0294     -509.54966      9594.8332      21.249358      21.249358      21.249358    
      6000   410.5538      -3734.0895      45.797895     -3688.2916     -1519.2908      9606.0643      21.257646      21.257646      21.257646    
      6500   399.32481     -3735.901       44.545283     -3691.3557     -1825.3678      9606.3503      21.257857      21.257857      21.257857    
      7000   422.4991      -3731.8561      47.130411     -3684.7257      1848.0494      9605.3147      21.257093      21.257093      21.257093    
      7500   407.59185     -3733.2612      45.467484     -3687.7937      2600.9679      9577.0602      21.236229      21.236229      21.236229    
      8000   403.88789     -3733.8335      45.054303     -3688.7792     -1835.8774      9625.6129      21.272056      21.272056      21.272056    
      8500   398.54909     -3734.0578      44.458751     -3689.599       2414.0065      9588.5426      21.244713      21.244713      21.244713    
      9000   408.54872     -3735.1798      45.574225     -3689.6055     -34.307567      9619.0409      21.267213      21.267213      21.267213    
      9500   404.34457     -3732.1351      45.105246     -3687.0299     -4885.7886      9647.8166      21.2884        21.2884        21.2884      
     10000   409.69147     -3733.4208      45.701701     -3687.7191      2520.4922      9602.873       21.255291      21.255291      21.255291    
     10500   390.79141     -3732.0066      43.59337      -3688.4132     -186.87139      9614.3749      21.263774      21.263774      21.263774    
     11000   385.2229      -3734.9196      42.972194     -3691.9474     -354.2625       9599.8921      21.253092      21.253092      21.253092    
     11500   386.33538     -3734.0035      43.096293     -3690.9072      1583.6418      9608.4452      21.259402      21.259402      21.259402    
     12000   410.26333     -3735.3819      45.765492     -3689.6164      1739.3972      9586.7742      21.243407      21.243407      21.243407    
     12500   400.56404     -3732.8276      44.683522     -3688.1441     -777.05665      9622.3673      21.269665      21.269665      21.269665    
     13000   396.66976     -3735.4838      44.249109     -3691.2347      1738.8533      9599.7103      21.252958      21.252958      21.252958    
     13500   412.12799     -3737.8796      45.973498     -3691.9061      4536.0147      9563.4257      21.226147      21.226147      21.226147    
     14000   396.19614     -3733.5159      44.196275     -3689.3196     -2506.7044      9609.1254      21.259903      21.259903      21.259903    
     14500   396.22537     -3732.8583      44.199536     -3688.6587     -6172.9537      9639.6867      21.282418      21.282418      21.282418    
     15000   394.3199      -3733.4455      43.986979     -3689.4585      5353.7381      9583.4361      21.240941      21.240941      21.240941    
     15500   373.07995     -3734.6283      41.61763      -3693.0107     -5338.1764      9640.151       21.28276       21.28276       21.28276     
     16000   405.56345     -3735.0692      45.241213     -3689.828       3024.8648      9577.5575      21.236597      21.236597      21.236597    
     16500   394.2411      -3732.7835      43.978188     -3688.8053      3542.669       9574.1229      21.234058      21.234058      21.234058    
     17000   392.43682     -3734.8921      43.776918     -3691.1152      932.04017      9600.1391      21.253274      21.253274      21.253274    
     17500   403.89119     -3735.0171      45.05467      -3689.9625     -2108.6904      9597.9183      21.251635      21.251635      21.251635    
     18000   408.79372     -3731.3683      45.601555     -3685.7667      1613.7835      9591.8992      21.247192      21.247192      21.247192    
     18500   407.83314     -3732.1277      45.494401     -3686.6333     -8434.9782      9653.4661      21.292554      21.292554      21.292554    
     19000   407.13827     -3733.9154      45.416887     -3688.4985      2622.2851      9588.0602      21.244357      21.244357      21.244357    
     19500   409.66158     -3735.8031      45.698365     -3690.1047      3704.2217      9585.8608      21.242732      21.242732      21.242732    
     20000   398.67914     -3733.709       44.473258     -3689.2357     -3954.5389      9608.003       21.259076      21.259076      21.259076    
Loop time of 386.468 on 8 procs for 20000 steps with 864 atoms

Performance: 8.943 ns/day, 2.684 hours/ns, 51.751 timesteps/s, 44.713 katom-step/s
96.2% CPU use with 1 MPI tasks x 8 OpenMP threads

MPI task timing breakdown:
Section |  min time  |  avg time  |  max time  |%varavg| %total
---------------------------------------------------------------
Pair    | 368.39     | 368.39     | 368.39     |   0.0 | 95.32
Neigh   | 0.003424   | 0.003424   | 0.003424   |   0.0 |  0.00
Comm    | 0.22181    | 0.22181    | 0.22181    |   0.0 |  0.06
Output  | 0.002542   | 0.002542   | 0.002542   |   0.0 |  0.00
Modify  | 17.806     | 17.806     | 17.806     |   0.0 |  4.61
Other   |            | 0.04764    |            |       |  0.01

Nlocal:            864 ave         864 max         864 min
Histogram: 1 0 0 0 0 0 0 0 0 0
Nghost:           3767 ave        3767 max        3767 min
Histogram: 1 0 0 0 0 0 0 0 0 0
Neighs:          80977 ave       80977 max       80977 min
Histogram: 1 0 0 0 0 0 0 0 0 0
FullNghs:       161954 ave      161954 max      161954 min
Histogram: 1 0 0 0 0 0 0 0 0 0

Total # of neighbors = 161954
Ave neighs/atom = 187.44676
Neighbor list builds = 2
Dangerous builds = 0
=== STAGE 3: NPT Production at 400 K ===
No /omp style for force computation currently active
Setting up Verlet run ...
  Unit style    : metal
  Current step  : 0
  Time step     : 0.001
Per MPI rank memory allocation (min/avg/max) = 20.3 | 20.3 | 20.3 Mbytes
   Step          Temp          PotEng         KinEng         TotEng         Press          Volume           Lx             Ly             Lz      
         0   398.67914     -3733.709       44.473258     -3689.2357     -3954.5389      9608.003       21.259076      21.259076      21.259076    
       500   418.70153     -3736.2763      46.706786     -3689.5695      638.92428      9596.4052      21.250518      21.250518      21.250518    
      1000   403.40229     -3736.8024      45.000132     -3691.8023     -1353.3515      9592.7545      21.247823      21.247823      21.247823    
      1500   390.22161     -3734.9314      43.529807     -3691.4015      2455.8491      9576.954       21.236151      21.236151      21.236151    
      2000   401.78477     -3734.6097      44.819696     -3689.79       -3560.3798      9608.5365      21.259469      21.259469      21.259469    
      2500   401.69115     -3733.8179      44.809252     -3689.0087      291.48155      9595.0034      21.249483      21.249483      21.249483    
      3000   377.54197     -3737.397       42.115375     -3695.2816      2567.4998      9558.4279      21.222449      21.222449      21.222449    
      3500   403.4884      -3733.7133      45.009738     -3688.7035     -741.69018      9595.5725      21.249904      21.249904      21.249904    
      4000   402.6056      -3732.8842      44.91126      -3687.973       5153.8553      9565.8534      21.227943      21.227943      21.227943    
      4500   414.4477      -3732.2307      46.232265     -3685.9984     -2483.4397      9619.7776      21.267756      21.267756      21.267756    
      5000   396.67182     -3732.6951      44.249339     -3688.4458     -1156.3293      9624.071       21.27092       21.27092       21.27092     
      5500   393.95469     -3733.0192      43.946239     -3689.073       5463.4981      9581.3939      21.239432      21.239432      21.239432    
      6000   409.62149     -3734.9109      45.693894     -3689.217      -3911.9982      9638.6976      21.28169       21.28169       21.28169     
      6500   412.94139     -3731.2148      46.064234     -3685.1506      2188.8354      9596.8314      21.250833      21.250833      21.250833    
      7000   387.87358     -3734.7551      43.267882     -3691.4872     -2298.3307      9614.2792      21.263704      21.263704      21.263704    
      7500   385.78519     -3734.3713      43.034918     -3691.3364      4266.7364      9576.7749      21.236018      21.236018      21.236018    
      8000   408.21427     -3734.1775      45.536916     -3688.6406     -1738.6435      9607.028       21.258356      21.258356      21.258356    
      8500   387.55179     -3731.1448      43.231986     -3687.9128      5849.4024      9572.5317      21.232882      21.232882      21.232882    
      9000   378.83146     -3733.1257      42.259219     -3690.8665     -3046.2426      9629.9871      21.275278      21.275278      21.275278    
      9500   391.47757     -3735.6075      43.669912     -3691.9376      1961.4646      9579.1748      21.237792      21.237792      21.237792    
     10000   394.78993     -3735.0387      44.039411     -3690.9993     -18.64033       9608.9742      21.259792      21.259792      21.259792    
     10500   410.95771     -3734.7446      45.842951     -3688.9017      1991.7766      9593.4981      21.248372      21.248372      21.248372    
     11000   399.00786     -3733.5323      44.509928     -3689.0224      4272.7525      9584.6141      21.241811      21.241811      21.241811    
     11500   386.9372      -3734.03        43.163427     -3690.8666     -1805.3112      9620.842       21.268541      21.268541      21.268541    
     12000   411.97651     -3734.7486      45.9566       -3688.792      -1248.665       9621.1123      21.26874       21.26874       21.26874     
     12500   415.34427     -3732.6094      46.332278     -3686.2771      2389.5919      9603.4309      21.255703      21.255703      21.255703    
     13000   376.95599     -3732.7019      42.050009     -3690.6519     -2117.1981      9618.4115      21.26675       21.26675       21.26675     
     13500   388.1269      -3735.1676      43.29614      -3691.8715      2371.5715      9575.121       21.234796      21.234796      21.234796    
     14000   399.50431     -3733.3039      44.565307     -3688.7386      1985.3866      9601.2575      21.254099      21.254099      21.254099    
     14500   381.33558     -3735.1345      42.538558     -3692.5959     -429.35367      9590.1014      21.245864      21.245864      21.245864    
     15000   400.42005     -3735.9113      44.667459     -3691.2439      2746.7825      9585.6303      21.242562      21.242562      21.242562    
     15500   405.40905     -3733.624       45.22399      -3688.4         3379.2493      9576.2336      21.235618      21.235618      21.235618    
     16000   391.59627     -3734.911       43.683153     -3691.2279     -2687.7608      9603.0272      21.255405      21.255405      21.255405    
     16500   401.78409     -3732.9676      44.81962      -3688.148       7344.8705      9549.6358      21.21594       21.21594       21.21594     
     17000   425.0785      -3734.3838      47.418146     -3686.9657     -3424.0235      9602.0075      21.254653      21.254653      21.254653    
     17500   405.09468     -3734.5306      45.188921     -3689.3417     -5858.909       9612.7839      21.262601      21.262601      21.262601    
     18000   389.85646     -3733.1544      43.489075     -3689.6653      3057.5393      9585.255       21.242285      21.242285      21.242285    
     18500   408.96927     -3733.169       45.621138     -3687.5479      804.99014      9593.8577      21.248638      21.248638      21.248638    
     19000   412.05177     -3734.1276      45.964995     -3688.1626      1306.4737      9579.7588      21.238224      21.238224      21.238224    
     19500   392.61554     -3734.5251      43.796855     -3690.7283     -6342.3569      9637.0096      21.280448      21.280448      21.280448    
     20000   410.80818     -3735.4972      45.826271     -3689.6709      5579.278       9558.1384      21.222234      21.222234      21.222234    
     20500   408.2918      -3732.954       45.545565     -3687.4084     -3485.861       9625.4904      21.271966      21.271966      21.271966    
     21000   407.45393     -3734.4495      45.452099     -3688.9974     -2702.3586      9620.7378      21.268464      21.268464      21.268464    
     21500   396.10553     -3734.9121      44.186168     -3690.726      -2299.7114      9605.0342      21.256886      21.256886      21.256886    
     22000   391.98383     -3735.714       43.726386     -3691.9877     -1835.3253      9589.9636      21.245762      21.245762      21.245762    
     22500   403.19905     -3733.8591      44.977461     -3688.8816      742.42822      9592.9537      21.24797       21.24797       21.24797     
     23000   400.07213     -3734.0087      44.628648     -3689.38       -874.7792       9603.6979      21.2559        21.2559        21.2559      
     23500   385.26706     -3733.6879      42.977121     -3690.7108     -3885.9386      9620.9978      21.268656      21.268656      21.268656    
     24000   394.30056     -3737.5175      43.984821     -3693.5327     -1394.7626      9599.1214      21.252523      21.252523      21.252523    
     24500   408.8005      -3732.3337      45.602311     -3686.7314      5942.1806      9566.6083      21.228501      21.228501      21.228501    
     25000   408.06513     -3734.5804      45.52028      -3689.0602      1651.9936      9569.1258      21.230363      21.230363      21.230363    
     25500   388.37159     -3736.8083      43.323436     -3693.4849     -4779.9448      9615.6587      21.264721      21.264721      21.264721    
     26000   397.75277     -3733.9247      44.36992      -3689.5548     -1529.4284      9601.6143      21.254363      21.254363      21.254363    
     26500   381.04824     -3730.9206      42.506504     -3688.414      -2238.52        9606.2945      21.257815      21.257815      21.257815    
     27000   407.96628     -3735.5769      45.509252     -3690.0677     -844.63859      9592.8347      21.247882      21.247882      21.247882    
     27500   366.23971     -3733.4712      40.854591     -3692.6166     -771.51657      9591.1549      21.246642      21.246642      21.246642    
     28000   389.99664     -3734.6906      43.504712     -3691.1859      200.64336      9576.6017      21.23589       21.23589       21.23589     
     28500   390.90524     -3733.9214      43.606068     -3690.3153     -1384.6622      9605.5838      21.257291      21.257291      21.257291    
     29000   414.74926     -3730.0383      46.265905     -3683.7724     -4209.1931      9625.7653      21.272168      21.272168      21.272168    
     29500   399.46502     -3735.5509      44.560924     -3690.99        2947.0824      9567.2449      21.228972      21.228972      21.228972    
     30000   410.98436     -3735.1688      45.845923     -3689.3228     -143.92984      9591.8372      21.247146      21.247146      21.247146    
     30500   426.64715     -3732.1326      47.593132     -3684.5394     -2327.0482      9623.3963      21.270423      21.270423      21.270423    
     31000   386.85404     -3732.6882      43.154151     -3689.5341     -1217.0177      9597.816       21.25156       21.25156       21.25156     
     31500   409.09675     -3732.5788      45.635358     -3686.9435     -190.01224      9600.0841      21.253233      21.253233      21.253233    
     32000   420.00549     -3735.0394      46.852245     -3688.1872      645.67125      9581.0414      21.239172      21.239172      21.239172    
     32500   388.87513     -3737.932       43.379607     -3694.5524      263.91639      9573.0514      21.233266      21.233266      21.233266    
     33000   399.50004     -3733.19        44.564831     -3688.6251     -3640.2329      9605.7283      21.257398      21.257398      21.257398    
     33500   411.87547     -3735.4006      45.945329     -3689.4553      5621.6772      9548.6463      21.215207      21.215207      21.215207    
     34000   384.194       -3734.2339      42.857419     -3691.3765     -4384.98        9600.6735      21.253668      21.253668      21.253668    
     34500   380.17906     -3734.7245      42.409547     -3692.3149     -2792.2087      9597.3906      21.251246      21.251246      21.251246    
     35000   399.14565     -3733.728       44.525298     -3689.2027     -2533.0947      9599.5172      21.252815      21.252815      21.252815    
     35500   388.81562     -3733.2927      43.372968     -3689.9198     -747.44205      9613.7735      21.263331      21.263331      21.263331    
     36000   413.18668     -3733.4248      46.091596     -3687.3332      4458.6379      9562.7568      21.225652      21.225652      21.225652    
     36500   397.40128     -3732.7146      44.33071      -3688.3839     -115.84056      9601.9746      21.254628      21.254628      21.254628    
     37000   408.88832     -3734.2754      45.612108     -3688.6633     -424.44975      9590.7883      21.246371      21.246371      21.246371    
     37500   384.33986     -3737.604       42.87369      -3694.7303      2946.0569      9564.0744      21.226627      21.226627      21.226627    
     38000   411.64872     -3733.8909      45.920034     -3687.9709     -8563.3272      9636.7376      21.280248      21.280248      21.280248    
     38500   411.16459     -3734.3802      45.866029     -3688.5141      5049.6674      9564.822       21.22718       21.22718       21.22718     
     39000   396.78169     -3734.5599      44.261595     -3690.2983     -2888.9747      9617.1544      21.265823      21.265823      21.265823    
     39500   409.6696      -3733.1005      45.699261     -3687.4012     -3155.3343      9599.4113      21.252737      21.252737      21.252737    
     40000   395.75692     -3732.036       44.14728      -3687.8887      2720.3574      9585.1992      21.242243      21.242243      21.242243    
     40500   391.99597     -3735.0356      43.727741     -3691.3078     -4118.4056      9612.8595      21.262657      21.262657      21.262657    
     41000   406.96823     -3734.1188      45.397918     -3688.7209      1964.722       9574.3351      21.234215      21.234215      21.234215    
     41500   391.37155     -3734.1725      43.658085     -3690.5144     -893.2007       9599.0636      21.25248       21.25248       21.25248     
     42000   410.72693     -3732.886       45.817207     -3687.0688      3570.3233      9567.0563      21.228832      21.228832      21.228832    
     42500   414.81999     -3734.666       46.273795     -3688.3922     -1037.444       9588.4485      21.244643      21.244643      21.244643    
     43000   406.16415     -3735.3741      45.308222     -3690.0659     -2181.8067      9612.2413      21.262201      21.262201      21.262201    
     43500   378.03475     -3732.8881      42.170345     -3690.7178      3596.4463      9571.9069      21.23242       21.23242       21.23242     
     44000   420.50273     -3734.0635      46.907713     -3687.1558     -2827.8907      9594.2733      21.248944      21.248944      21.248944    
     44500   397.37082     -3735.5976      44.327313     -3691.2703     -2248.0449      9573.0416      21.233259      21.233259      21.233259    
     45000   391.69691     -3736.0094      43.69438      -3692.315      -280.45264      9592.5211      21.247651      21.247651      21.247651    
     45500   400.16994     -3735.7817      44.639559     -3691.1422     -2754.7159      9606.8504      21.258225      21.258225      21.258225    
     46000   407.90341     -3733.604       45.502239     -3688.1018      3683.5862      9581.9491      21.239842      21.239842      21.239842    
     46500   384.23527     -3732.1116      42.862022     -3689.2496     -614.5297       9603.1283      21.25548       21.25548       21.25548     
     47000   391.31167     -3734.3746      43.651406     -3690.7232     -165.5416       9600.206       21.253323      21.253323      21.253323    
     47500   375.28891     -3735.9811      41.864043     -3694.1171      2606.9589      9577.2687      21.236383      21.236383      21.236383    
     48000   396.29609     -3735.4127      44.207426     -3691.2053     -215.04935      9594.0321      21.248766      21.248766      21.248766    
     48500   410.6274      -3735.6686      45.806104     -3689.8625     -3251.7728      9612.764       21.262587      21.262587      21.262587    
     49000   391.18713     -3735.3342      43.637514     -3691.6967      5664.3761      9545.7652      21.213073      21.213073      21.213073    
     49500   395.9165      -3737.5141      44.165081     -3693.349       743.90788      9582.9881      21.24061       21.24061       21.24061     
     50000   400.74305     -3734.387       44.703491     -3689.6835     -801.61205      9591.1397      21.246631      21.246631      21.246631    
Loop time of 1206.58 on 8 procs for 50000 steps with 864 atoms

Performance: 3.580 ns/day, 6.703 hours/ns, 41.439 timesteps/s, 35.804 katom-step/s
94.4% CPU use with 1 MPI tasks x 8 OpenMP threads

MPI task timing breakdown:
Section |  min time  |  avg time  |  max time  |%varavg| %total
---------------------------------------------------------------
Pair    | 1152.7     | 1152.7     | 1152.7     |   0.0 | 95.53
Neigh   | 0          | 0          | 0          |   0.0 |  0.00
Comm    | 0.6923     | 0.6923     | 0.6923     |   0.0 |  0.06
Output  | 0.006672   | 0.006672   | 0.006672   |   0.0 |  0.00
Modify  | 53.092     | 53.092     | 53.092     |   0.0 |  4.40
Other   |            | 0.1296     |            |       |  0.01

Nlocal:            864 ave         864 max         864 min
Histogram: 1 0 0 0 0 0 0 0 0 0
Nghost:           3767 ave        3767 max        3767 min
Histogram: 1 0 0 0 0 0 0 0 0 0
Neighs:          82981 ave       82981 max       82981 min
Histogram: 1 0 0 0 0 0 0 0 0 0
FullNghs:       165962 ave      165962 max      165962 min
Histogram: 1 0 0 0 0 0 0 0 0 0

Total # of neighbors = 165962
Ave neighs/atom = 192.08565
Neighbor list builds = 0
Dangerous builds = 0

=== FINAL RESULTS: FCC at 400 K ===
Atoms: 864 | PE/atom: -4.32281701338392 eV/atom
WARNING: Detected non-ASCII characters in input. Will try to continue by replacing with ASCII equivalents where known. (src/input.cpp:479)
Volume: 9591.13970153257 …³ | Area: 451.419322423591 ²
==========================================
FCC 400 864 -4.32281701338392 9591.13970153257 21.2466308487626 21.2466308487626 21.2466308487626 451.419322423591
Simulation complete!
Total wall time: 0:26:34
