LAMMPS (10 Sep 2025)
  using 8 OpenMP thread(s) per MPI task
Loaded 1 plugins from C:\Users\harsh\Downloads\LAMMPS 64-bit 10Sep2025\plugins
using multi-threaded neighbor list subroutines
Reading data file ...
  orthogonal box = (0 0 0) to (22.95 22.95 22.95)
  1 by 1 by 1 MPI processor grid
  reading atoms ...
  864 atoms
  read_data CPU = 0.005 seconds
=== STAGE 1: Energy Minimization ===
Switching to 'neigh_modify every 1 delay 0 check yes' setting during minimization
No /omp style for force computation currently active
Neighbor list info ...
  update: every = 1 steps, delay = 0 steps, check = yes
  max neighbors/atom: 4000, page size: 100000
  master list distance cutoff = 8
  ghost atom cutoff = 8
  binsize = 4, bins = 6 6 6
  2 neighbor lists, perpetual/occasional/extra = 2 0 0
  (1) pair meam, perpetual
      attributes: full, newton on, omp
      pair build: full/bin/atomonly/omp
      stencil: full/bin/3d
      bin: standard
  (2) pair meam, perpetual, half/full from (1)
      attributes: half, newton on, omp
      pair build: halffull/newton/omp
      stencil: none
      bin: none
Setting up cg style minimization ...
  Unit style    : metal
  Current step  : 0
Per MPI rank memory allocation (min/avg/max) = 20.91 | 20.91 | 20.91 Mbytes
   Step          Temp          PotEng         KinEng         TotEng         Press          Volume           Lx             Ly             Lz      
         0   0             -3524.1518      0             -3524.1518     -162078.96      12087.822      22.95          22.95          22.95        
        40   0             -3598.2444      0             -3598.2444     -170307.21      12087.822      22.95          22.95          22.95        
Loop time of 1.42697 on 8 procs for 40 steps with 864 atoms

96.4% CPU use with 1 MPI tasks x 8 OpenMP threads

Minimization stats:
  Stopping criterion = energy tolerance
  Energy initial, next-to-last, final = 
     -3524.15177172717  -3598.24148250986  -3598.24438986269
  Force two-norm initial, final = 26.863913 0.38872339
  Force max component initial, final = 2.1291732 0.15252229
  Final line search alpha, max atom move = 0.96626524 0.14737699
  Iterations, force evaluations = 40 78

MPI task timing breakdown:
Section |  min time  |  avg time  |  max time  |%varavg| %total
---------------------------------------------------------------
Pair    | 1.4039     | 1.4039     | 1.4039     |   0.0 | 98.38
Neigh   | 0          | 0          | 0          |   0.0 |  0.00
Comm    | 0.001173   | 0.001173   | 0.001173   |   0.0 |  0.08
Output  | 0          | 0          | 0          |   0.0 |  0.00
Modify  | 0.020504   | 0.020504   | 0.020504   |   0.0 |  1.44
Other   |            | 0.001413   |            |       |  0.10

Nlocal:            864 ave         864 max         864 min
Histogram: 1 0 0 0 0 0 0 0 0 0
Nghost:           3767 ave        3767 max        3767 min
Histogram: 1 0 0 0 0 0 0 0 0 0
Neighs:          60480 ave       60480 max       60480 min
Histogram: 1 0 0 0 0 0 0 0 0 0
FullNghs:       120960 ave      120960 max      120960 min
Histogram: 1 0 0 0 0 0 0 0 0 0

Total # of neighbors = 120960
Ave neighs/atom = 140
Neighbor list builds = 0
Dangerous builds = 0
Minimized PE/atom: -4.16463471048923 eV/atom
=== STAGE 2: NPT Equilibration at 200 K ===
No /omp style for force computation currently active
Setting up Verlet run ...
  Unit style    : metal
  Current step  : 0
  Time step     : 0.002
Per MPI rank memory allocation (min/avg/max) = 19.88 | 19.88 | 19.88 Mbytes
   Step          Temp          PotEng         KinEng         TotEng         Press          Volume           Lx             Ly             Lz      
         0   200           -3598.2444      22.310301     -3575.9341     -168335.8       12087.822      22.95          22.95          22.95        
       500   211.66715     -3754.222       23.611789     -3730.6102     -734.57411      9572.497       21.232856      21.232856      21.232856    
      1000   208.18148     -3756.7598      23.222957     -3733.5369      2055.4913      9537.774       21.207152      21.207152      21.207152    
      1500   202.10274     -3758.3015      22.544864     -3735.7567     -518.88669      9538.8232      21.207929      21.207929      21.207929    
      2000   198.2432      -3758.5371      22.114327     -3736.4228      1620.6785      9528.9833      21.200634      21.200634      21.200634    
      2500   194.66647     -3758.1986      21.715338     -3736.4832      255.02932      9522.5959      21.195896      21.195896      21.195896    
      3000   205.98064     -3758.4494      22.97745      -3735.4719     -608.49016      9532.9662      21.203588      21.203588      21.203588    
      3500   197.46952     -3758.3798      22.028022     -3736.3518      821.92025      9517.2018      21.191893      21.191893      21.191893    
      4000   192.4522      -3758.9901      21.468333     -3737.5218     -1117.145       9533.506       21.203988      21.203988      21.203988    
      4500   194.54949     -3757.5389      21.702288     -3735.8367      132.43616      9519.2902      21.193443      21.193443      21.193443    
      5000   201.99859     -3757.959       22.533247     -3735.4257     -1394.0394      9533.4134      21.203919      21.203919      21.203919    
      5500   206.38453     -3758.1355      23.022505     -3735.113       1864.6905      9510.7846      21.187129      21.187129      21.187129    
      6000   210.29132     -3758.423       23.458313     -3734.9647     -2099.605       9530.1374      21.20149       21.20149       21.20149     
      6500   200.4589      -3759.0752      22.361492     -3736.7138      265.15121      9516.2012      21.191151      21.191151      21.191151    
      7000   195.81301     -3759.0997      21.843236     -3737.2565      2868.832       9507.664       21.184812      21.184812      21.184812    
      7500   193.64432     -3757.7912      21.601315     -3736.1899     -239.94502      9519.1436      21.193335      21.193335      21.193335    
      8000   204.25705     -3758.435       22.785182     -3735.6498     -731.48274      9523.8969      21.196861      21.196861      21.196861    
      8500   194.44741     -3758.5659      21.690901     -3736.875      -2062.0487      9527.9113      21.199839      21.199839      21.199839    
      9000   191.24708     -3758.8851      21.333899     -3737.5512     -2372.7326      9529.3556      21.20091       21.20091       21.20091     
      9500   194.04582     -3758.7694      21.646104     -3737.1233      1288.0626      9515.5253      21.190649      21.190649      21.190649    
     10000   201.91434     -3759.2391      22.523848     -3736.7152      218.3957       9516.9612      21.191715      21.191715      21.191715    
     10500   208.05561     -3757.2909      23.208916     -3734.082      -2295.2506      9529.7817      21.201226      21.201226      21.201226    
     11000   197.74874     -3758.9999      22.059169     -3736.9407      1829.955       9509.1256      21.185897      21.185897      21.185897    
     11500   194.54355     -3758.5603      21.701625     -3736.8587      1127.0719      9512.4164      21.188341      21.188341      21.188341    
     12000   202.93834     -3758.3076      22.638077     -3735.6695     -3251.103       9540.1856      21.208939      21.208939      21.208939    
     12500   206.24065     -3758.2755      23.006455     -3735.269       3807.2039      9500.494       21.179485      21.179485      21.179485    
     13000   201.31121     -3758.8         22.456568     -3736.3434     -2427.1983      9533.0094      21.20362       21.20362       21.20362     
     13500   197.20452     -3759.8611      21.998462     -3737.8626      4751.7465      9484.0078      21.167227      21.167227      21.167227    
     14000   197.96841     -3759.6797      22.083675     -3737.596       1898.5586      9504.9315      21.182782      21.182782      21.182782    
     14500   200.47337     -3759.5807      22.363106     -3737.2176     -3570.6631      9534.7749      21.204929      21.204929      21.204929    
     15000   199.18681     -3758.4818      22.219588     -3736.2622      985.65422      9500.194       21.179262      21.179262      21.179262    
     15500   207.79063     -3758.4018      23.179357     -3735.2224      807.35666      9511.1088      21.18737       21.18737       21.18737     
     16000   202.5166      -3758.7414      22.591032     -3736.1504     -2276.6593      9523.6404      21.196671      21.196671      21.196671    
     16500   192.1282      -3759.2117      21.43219      -3737.7795     -172.75285      9512.1679      21.188156      21.188156      21.188156    
     17000   199.85775     -3759.9106      22.294432     -3737.6162      817.90497      9503.9894      21.182082      21.182082      21.182082    
     17500   201.05692     -3758.3831      22.428202     -3735.9549     -2840.5715      9513.5378      21.189173      21.189173      21.189173    
     18000   208.85527     -3759.1287      23.298119     -3735.8305     -1151.3877      9499.0758      21.178431      21.178431      21.178431    
     18500   204.2186      -3760.6328      22.780892     -3737.8519     -2191.8902      9511.4009      21.187587      21.187587      21.187587    
     19000   202.84048     -3760.3232      22.627161     -3737.696       6666.2957      9463.8333      21.152207      21.152207      21.152207    
     19500   197.00645     -3759.1561      21.976366     -3737.1797     -4495.5724      9533.5922      21.204052      21.204052      21.204052    
     20000   195.07872     -3759.2562      21.761324     -3737.4949     -954.60183      9517.5188      21.192129      21.192129      21.192129    
Loop time of 409.89 on 8 procs for 20000 steps with 864 atoms

Performance: 8.432 ns/day, 2.846 hours/ns, 48.794 timesteps/s, 42.158 katom-step/s
96.2% CPU use with 1 MPI tasks x 8 OpenMP threads

MPI task timing breakdown:
Section |  min time  |  avg time  |  max time  |%varavg| %total
---------------------------------------------------------------
Pair    | 391.43     | 391.43     | 391.43     |   0.0 | 95.50
Neigh   | 0.003398   | 0.003398   | 0.003398   |   0.0 |  0.00
Comm    | 0.22418    | 0.22418    | 0.22418    |   0.0 |  0.05
Output  | 0.002215   | 0.002215   | 0.002215   |   0.0 |  0.00
Modify  | 18.183     | 18.183     | 18.183     |   0.0 |  4.44
Other   |            | 0.04676    |            |       |  0.01

Nlocal:            864 ave         864 max         864 min
Histogram: 1 0 0 0 0 0 0 0 0 0
Nghost:           3767 ave        3767 max        3767 min
Histogram: 1 0 0 0 0 0 0 0 0 0
Neighs:          81678 ave       81678 max       81678 min
Histogram: 1 0 0 0 0 0 0 0 0 0
FullNghs:       163356 ave      163356 max      163356 min
Histogram: 1 0 0 0 0 0 0 0 0 0

Total # of neighbors = 163356
Ave neighs/atom = 189.06944
Neighbor list builds = 2
Dangerous builds = 0
=== STAGE 3: NPT Production at 200 K ===
No /omp style for force computation currently active
Setting up Verlet run ...
  Unit style    : metal
  Current step  : 0
  Time step     : 0.001
Per MPI rank memory allocation (min/avg/max) = 20.31 | 20.31 | 20.31 Mbytes
   Step          Temp          PotEng         KinEng         TotEng         Press          Volume           Lx             Ly             Lz      
         0   195.07872     -3759.2562      21.761324     -3737.4949     -954.60183      9517.5188      21.192129      21.192129      21.192129    
       500   198.64494     -3760.0156      22.159142     -3737.8565      943.52481      9496.8751      21.176795      21.176795      21.176795    
      1000   194.7688      -3759.2924      21.726753     -3737.5656      586.96705      9498.628       21.178098      21.178098      21.178098    
      1500   194.17117     -3758.5196      21.660086     -3736.8595      3491.0397      9480.8159      21.164852      21.164852      21.164852    
      2000   201.7858      -3759.123       22.509509     -3736.6134     -813.637        9512.1546      21.188147      21.188147      21.188147    
      2500   200.19033     -3759.9736      22.331532     -3737.6421      1249.672       9501.765       21.180429      21.180429      21.180429    
      3000   192.75711     -3759.2503      21.502346     -3737.748      -2138.9875      9513.8716      21.189421      21.189421      21.189421    
      3500   199.60742     -3759.0298      22.266508     -3736.7633      559.18444      9504.0978      21.182163      21.182163      21.182163    
      4000   207.95979     -3759.8651      23.198228     -3736.6669     -731.22594      9503.7432      21.181899      21.181899      21.181899    
      4500   201.88863     -3760.0685      22.52098      -3737.5475     -4951.1804      9535.8273      21.205709      21.205709      21.205709    
      5000   201.7311      -3759.1039      22.503407     -3736.6005      5197.831       9472.175       21.15842       21.15842       21.15842     
      5500   202.7576      -3758.7254      22.617916     -3736.1075     -3536.2455      9520.9078      21.194644      21.194644      21.194644    
      6000   197.11329     -3759.2919      21.988284     -3737.3036      3369.1391      9480.0814      21.164306      21.164306      21.164306    
      6500   192.56825     -3759.7826      21.481278     -3738.3013     -807.23818      9511.3284      21.187533      21.187533      21.187533    
      7000   196.99193     -3759.9263      21.974746     -3737.9515      1666.4038      9482.4939      21.166101      21.166101      21.166101    
      7500   197.76147     -3759.4779      22.06059      -3737.4173     -3671.7902      9517.7085      21.192269      21.192269      21.192269    
      8000   200.97945     -3761.0867      22.41956      -3738.6672      1275.6756      9485.2676      21.168164      21.168164      21.168164    
      8500   201.7614      -3760.6443      22.506788     -3738.1375     -2405.148       9510.0043      21.18655       21.18655       21.18655     
      9000   211.93012     -3759.8981      23.641123     -3736.2569      2285.8272      9483.5901      21.166916      21.166916      21.166916    
      9500   206.3474      -3758.8768      23.018363     -3735.8585     -3190.4233      9514.8398      21.19014       21.19014       21.19014     
     10000   196.84941     -3759.1611      21.958848     -3737.2023      2705.341       9495.5089      21.17578       21.17578       21.17578     
     10500   202.53626     -3760.446       22.593225     -3737.8527     -2648.7053      9514.3373      21.189767      21.189767      21.189767    
     11000   204.69678     -3759.9738      22.834233     -3737.1396      433.37912      9504.6468      21.18257       21.18257       21.18257     
     11500   194.90703     -3758.1406      21.742173     -3736.3984      1104.6643      9502.2526      21.180792      21.180792      21.180792    
     12000   204.21992     -3760.0824      22.781039     -3737.3014      3109.8146      9489.396       21.171235      21.171235      21.171235    
     12500   195.00559     -3760.0283      21.753167     -3738.2752     -1511.0536      9508.4538      21.185398      21.185398      21.185398    
     13000   195.63891     -3760.8836      21.823815     -3739.0598      2059.483       9490.4772      21.172039      21.172039      21.172039    
     13500   193.61663     -3759.3529      21.598227     -3737.7547     -1328.8039      9504.7498      21.182647      21.182647      21.182647    
     14000   207.6094      -3760.1882      23.159141     -3737.029       4255.6104      9481.6202      21.165451      21.165451      21.165451    
     14500   205.17507     -3759.8151      22.887587     -3736.9275     -409.46419      9510.7269      21.187086      21.187086      21.187086    
     15000   188.03664     -3759.7157      20.97577      -3738.7399      2598.2655      9490.2876      21.171898      21.171898      21.171898    
     15500   190.91802     -3760.047       21.297193     -3738.7498     -2584.8866      9524.5086      21.197315      21.197315      21.197315    
     16000   199.10555     -3760.3119      22.210524     -3738.1014      2572.3738      9497.9061      21.177562      21.177562      21.177562    
     16500   199.97696     -3759.8112      22.307731     -3737.5034     -1056.725       9508.1025      21.185137      21.185137      21.185137    
     17000   200.34608     -3758.0941      22.348907     -3735.7452     -4128.0294      9528.229       21.200075      21.200075      21.200075    
     17500   205.19829     -3758.6995      22.890178     -3735.8093     -4.9710608      9510.9227      21.187232      21.187232      21.187232    
     18000   201.42166     -3759.5505      22.468889     -3737.0816      1962.8268      9482.8448      21.166362      21.166362      21.166362    
     18500   201.39321     -3760.3914      22.465716     -3737.9257      2985.1729      9489.7257      21.17148       21.17148       21.17148     
     19000   194.08702     -3759.975       21.650699     -3738.3244      2387.9665      9503.1847      21.181484      21.181484      21.181484    
     19500   193.51491     -3760.2652      21.58688      -3738.6783      563.87165      9502.3266      21.180847      21.180847      21.180847    
     20000   203.15979     -3759.4014      22.662781     -3736.7386     -1178.2383      9521.7521      21.19527       21.19527       21.19527     
     20500   198.2826      -3759.1498      22.118722     -3737.0311     -1869.7779      9517.8431      21.192369      21.192369      21.192369    
     21000   204.65191     -3760.3572      22.829229     -3737.528       1010.5284      9497.9883      21.177623      21.177623      21.177623    
     21500   194.09998     -3760.4332      21.652145     -3738.781      -2877.7629      9517.719       21.192277      21.192277      21.192277    
     22000   195.41821     -3760.1332      21.799195     -3738.334      -983.67744      9510.0767      21.186604      21.186604      21.186604    
     22500   202.749       -3758.9694      22.616956     -3736.3524      3000.2199      9494.5885      21.175096      21.175096      21.175096    
     23000   200.4217      -3759.9254      22.357342     -3737.5681      795.81005      9500.7364      21.179665      21.179665      21.179665    
     23500   196.86726     -3760.3297      21.960839     -3738.3689     -2448.9056      9516.9797      21.191728      21.191728      21.191728    
     24000   195.35775     -3760.0682      21.792451     -3738.2757      3107.3443      9490.5861      21.17212       21.17212       21.17212     
     24500   204.39811     -3760.2134      22.800917     -3737.4125      349.49481      9497.3188      21.177125      21.177125      21.177125    
     25000   200.58722     -3759.3395      22.375806     -3736.9637     -1278.3946      9507.3912      21.184609      21.184609      21.184609    
     25500   196.69282     -3759.2275      21.94138      -3737.2861      365.87038      9507.4143      21.184626      21.184626      21.184626    
     26000   189.7999      -3759.764       21.172465     -3738.5915     -1144.1386      9517.9177      21.192425      21.192425      21.192425    
     26500   192.89592     -3759.8925      21.51783      -3738.3747     -2473.509       9524.1455      21.197046      21.197046      21.197046    
     27000   204.03278     -3759.684       22.760163     -3736.9239     -2070.7562      9517.7065      21.192268      21.192268      21.192268    
     27500   194.38648     -3759.244       21.684105     -3737.5599      1295.6184      9499.6594      21.178865      21.178865      21.178865    
     28000   192.45534     -3759.4753      21.468683     -3738.0066     -1302.2613      9514.7519      21.190075      21.190075      21.190075    
     28500   203.65512     -3760.3463      22.718035     -3737.6283     -418.60757      9511.8077      21.187889      21.187889      21.187889    
     29000   194.22069     -3759.0051      21.665611     -3737.3395     -1372.9932      9519.1518      21.193341      21.193341      21.193341    
     29500   200.91961     -3758.8187      22.412885     -3736.4058      5951.0392      9476.1377      21.16137       21.16137       21.16137     
     30000   207.23479     -3758.6613      23.117352     -3735.5439      4506.2226      9474.8584      21.160418      21.160418      21.160418    
     30500   206.77718     -3760.0285      23.066306     -3736.9622     -2559.9052      9510.2216      21.186711      21.186711      21.186711    
     31000   194.61962     -3759.3731      21.710112     -3737.663       1189.9899      9493.2646      21.174112      21.174112      21.174112    
     31500   200.43318     -3759.9043      22.358623     -3737.5457     -1043.494       9497.6317      21.177358      21.177358      21.177358    
     32000   203.18052     -3760.3321      22.665093     -3737.667       2258.7768      9484.4389      21.167548      21.167548      21.167548    
     32500   203.5539      -3759.3116      22.706744     -3736.6049     -3387.5531      9517.2205      21.191907      21.191907      21.191907    
     33000   200.38874     -3758.8863      22.353665     -3736.5326      1612.1975      9488.2241      21.170363      21.170363      21.170363    
     33500   204.817       -3760.3803      22.847645     -3737.5326      1065.6679      9485.8611      21.168606      21.168606      21.168606    
     34000   192.53011     -3760.0226      21.477024     -3738.5456     -849.23912      9500.9092      21.179794      21.179794      21.179794    
     34500   205.88281     -3760.033       22.966537     -3737.0664      3978.6933      9476.0288      21.161289      21.161289      21.161289    
     35000   203.71681     -3758.8152      22.724917     -3736.0903     -1189.2822      9508.3968      21.185356      21.185356      21.185356    
     35500   203.38046     -3759.2279      22.687396     -3736.5405      2660.34        9488.4531      21.170534      21.170534      21.170534    
     36000   198.14567     -3759.7449      22.103447     -3737.6415     -1111.5236      9505.9294      21.183523      21.183523      21.183523    
     36500   201.74436     -3758.8271      22.504887     -3736.3223     -2385.9307      9511.1871      21.187428      21.187428      21.187428    
     37000   204.25017     -3759.2388      22.784414     -3736.4544      2645.4882      9504.0703      21.182142      21.182142      21.182142    
     37500   200.66787     -3759.327       22.384803     -3736.9421     -1392.6317      9513.4361      21.189098      21.189098      21.189098    
     38000   201.05674     -3760.0578      22.428182     -3737.6296     -1284.172       9504.7292      21.182632      21.182632      21.182632    
     38500   200.18484     -3758.8631      22.33092      -3736.5322     -901.2349       9514.4349      21.189839      21.189839      21.189839    
     39000   206.46825     -3758.9916      23.031844     -3735.9597      1972.294       9492.1638      21.173293      21.173293      21.173293    
     39500   187.86831     -3758.9792      20.956993     -3738.0222      174.25045      9499.6935      21.17889       21.17889       21.17889     
     40000   198.59913     -3760.0907      22.154032     -3737.9367     -1501.5559      9500.9704      21.179839      21.179839      21.179839    
     40500   200.42145     -3759.823       22.357314     -3737.4656     -1283.4878      9506.1784      21.183708      21.183708      21.183708    
     41000   205.90668     -3759.8078      22.9692       -3736.8386      53.278289      9492.9468      21.173875      21.173875      21.173875    
     41500   206.98805     -3760.6563      23.089829     -3737.5665      2177.5689      9487.682       21.16996       21.16996       21.16996     
     42000   198.11174     -3761.1199      22.099663     -3739.0202      1637.943       9491.1553      21.172543      21.172543      21.172543    
     42500   196.34899     -3759.7638      21.903025     -3737.8607      1931.3029      9496.4708      21.176495      21.176495      21.176495    
     43000   194.07707     -3758.8766      21.64959      -3737.227      -1516.8092      9511.127       21.187383      21.187383      21.187383    
     43500   198.624       -3760.1603      22.156806     -3738.0035     -297.04694      9485.2318      21.168138      21.168138      21.168138    
     44000   198.003       -3759.6719      22.087533     -3737.5844      3760.991       9474.2651      21.159976      21.159976      21.159976    
     44500   199.05813     -3759.6799      22.205234     -3737.4746     -2628.4206      9506.144       21.183683      21.183683      21.183683    
     45000   210.29847     -3760.2343      23.459111     -3736.7752      2661.5178      9478.5058      21.163133      21.163133      21.163133    
     45500   211.13129     -3759.0246      23.552013     -3735.4726      1374.3506      9486.5922      21.169149      21.169149      21.169149    
     46000   202.44887     -3758.8096      22.583476     -3736.2261     -117.55891      9492.8211      21.173782      21.173782      21.173782    
     46500   199.55821     -3759.9209      22.261019     -3737.6599     -2453.7271      9523.2908      21.196412      21.196412      21.196412    
     47000   198.00195     -3759.0371      22.087415     -3736.9497     -1654.1353      9516.6097      21.191454      21.191454      21.191454    
     47500   204.10645     -3759.7026      22.768381     -3736.9343     -2134.212       9519.0005      21.193228      21.193228      21.193228    
     48000   191.81703     -3760.4117      21.397479     -3739.0142      1916.2972      9478.5661      21.163178      21.163178      21.163178    
     48500   199.98972     -3759.8812      22.309155     -3737.5721      1347.9683      9494.131       21.174756      21.174756      21.174756    
     49000   201.84401     -3759.4936      22.516004     -3736.9776     -851.51867      9510.8166      21.187153      21.187153      21.187153    
     49500   195.44221     -3760.0781      21.801873     -3738.2762     -3276.0182      9519.3097      21.193458      21.193458      21.193458    
     50000   189.69052     -3759.3869      21.160264     -3738.2267     -410.80806      9502.6723      21.181104      21.181104      21.181104    
Loop time of 1031.93 on 8 procs for 50000 steps with 864 atoms

Performance: 4.186 ns/day, 5.733 hours/ns, 48.453 timesteps/s, 41.863 katom-step/s
95.0% CPU use with 1 MPI tasks x 8 OpenMP threads

MPI task timing breakdown:
Section |  min time  |  avg time  |  max time  |%varavg| %total
---------------------------------------------------------------
Pair    | 984.76     | 984.76     | 984.76     |   0.0 | 95.43
Neigh   | 0          | 0          | 0          |   0.0 |  0.00
Comm    | 0.57016    | 0.57016    | 0.57016    |   0.0 |  0.06
Output  | 0.005175   | 0.005175   | 0.005175   |   0.0 |  0.00
Modify  | 46.486     | 46.486     | 46.486     |   0.0 |  4.50
Other   |            | 0.1154     |            |       |  0.01

Nlocal:            864 ave         864 max         864 min
Histogram: 1 0 0 0 0 0 0 0 0 0
Nghost:           3767 ave        3767 max        3767 min
Histogram: 1 0 0 0 0 0 0 0 0 0
Neighs:          83671 ave       83671 max       83671 min
Histogram: 1 0 0 0 0 0 0 0 0 0
FullNghs:       167342 ave      167342 max      167342 min
Histogram: 1 0 0 0 0 0 0 0 0 0

Total # of neighbors = 167342
Ave neighs/atom = 193.68287
Neighbor list builds = 0
Dangerous builds = 0

=== FINAL RESULTS: FCC at 200 K ===
Atoms: 864 | PE/atom: -4.35155276218105 eV/atom
WARNING: Detected non-ASCII characters in input. Will try to continue by replacing with ASCII equivalents where known. (src/input.cpp:479)
Volume: 9502.67227828405 …³ | Area: 448.6391487438 ²
==========================================
FCC 200 864 -4.35155276218105 9502.67227828405 21.1811035770991 21.1811035770991 21.1811035770991 448.6391487438
Simulation complete!
Total wall time: 0:24:03
