LAMMPS (10 Sep 2025)
  using 8 OpenMP thread(s) per MPI task
Loaded 1 plugins from C:\Users\harsh\Downloads\LAMMPS 64-bit 10Sep2025\plugins
using multi-threaded neighbor list subroutines
Reading data file ...
  orthogonal box = (0 0 0) to (16.228101 28.107895 26.500377)
  1 by 1 by 1 MPI processor grid
  reading atoms ...
  432 atoms
  read_data CPU = 0.013 seconds
=== STAGE 1: Energy Minimization ===
Switching to 'neigh_modify every 1 delay 0 check yes' setting during minimization
No /omp style for force computation currently active
Neighbor list info ...
  update: every = 1 steps, delay = 0 steps, check = yes
  max neighbors/atom: 4000, page size: 100000
  master list distance cutoff = 8
  ghost atom cutoff = 8
  binsize = 4, bins = 5 8 7
  2 neighbor lists, perpetual/occasional/extra = 2 0 0
  (1) pair meam, perpetual
      attributes: full, newton on, omp
      pair build: full/bin/atomonly/omp
      stencil: full/bin/3d
      bin: standard
  (2) pair meam, perpetual, half/full from (1)
      attributes: half, newton on, omp
      pair build: halffull/newton/omp
      stencil: none
      bin: none
Setting up cg style minimization ...
  Unit style    : metal
  Current step  : 0
Per MPI rank memory allocation (min/avg/max) = 19.27 | 19.27 | 19.27 Mbytes
   Step          Temp          PotEng         KinEng         TotEng         Press          Volume           Lx             Ly             Lz      
         0   0             -1136.3124      0             -1136.3124     -96361.124      12087.822      16.228101      28.107895      26.500377    
       197   0             -1568.2116      0             -1568.2116     -31035.584      12087.822      16.228101      28.107895      26.500377    
Loop time of 1.48992 on 8 procs for 197 steps with 432 atoms

95.4% CPU use with 1 MPI tasks x 8 OpenMP threads

Minimization stats:
  Stopping criterion = energy tolerance
  Energy initial, next-to-last, final = 
     -1136.31237615451  -1568.21024598251  -1568.21158415844
  Force two-norm initial, final = 13.414572 4.4968859
  Force max component initial, final = 1.3969284 1.4041999
  Final line search alpha, max atom move = 0.030244699 0.042469604
  Iterations, force evaluations = 197 408

MPI task timing breakdown:
Section |  min time  |  avg time  |  max time  |%varavg| %total
---------------------------------------------------------------
Pair    | 1.3863     | 1.3863     | 1.3863     |   0.0 | 93.05
Neigh   | 0.005404   | 0.005404   | 0.005404   |   0.0 |  0.36
Comm    | 0.002795   | 0.002795   | 0.002795   |   0.0 |  0.19
Output  | 0          | 0          | 0          |   0.0 |  0.00
Modify  | 0.088999   | 0.088999   | 0.088999   |   0.0 |  5.97
Other   |            | 0.006383   |            |       |  0.43

Nlocal:            432 ave         432 max         432 min
Histogram: 1 0 0 0 0 0 0 0 0 0
Nghost:           1882 ave        1882 max        1882 min
Histogram: 1 0 0 0 0 0 0 0 0 0
Neighs:          16868 ave       16868 max       16868 min
Histogram: 1 0 0 0 0 0 0 0 0 0
FullNghs:        33736 ave       33736 max       33736 min
Histogram: 1 0 0 0 0 0 0 0 0 0

Total # of neighbors = 33736
Ave neighs/atom = 78.092593
Neighbor list builds = 8
Dangerous builds = 0
Minimized PE/atom: -3.63011940777418 eV/atom
=== STAGE 2: NPT Equilibration at 400 K ===
No /omp style for force computation currently active
Setting up Verlet run ...
  Unit style    : metal
  Current step  : 0
  Time step     : 0.002
Per MPI rank memory allocation (min/avg/max) = 18.18 | 18.18 | 18.18 Mbytes
   Step          Temp          PotEng         KinEng         TotEng         Press          Volume           Lx             Ly             Lz      
         0   400           -1568.2116      22.284449     -1545.9271     -29066.461      12087.822      16.228101      28.107895      26.500377    
       500   693.5313      -1680.4353      38.637407     -1641.7979     -2381.7055      8076.6417      14.187154      24.572871      23.167525    
      1000   513.27438     -1767.8528      28.595092     -1739.2577     -5198.8971      6628.8781      13.283066      23.006946      21.691157    
      1500   414.94778     -1808.9598      23.117207     -1785.8426      1102.2131      5983.9733      12.837532      22.235258      20.963603    
      2000   405.22525     -1816.2622      22.575554     -1793.6866      2232.5058      5805.8918      12.708901      22.012462      20.753548    
      2500   394.15351     -1830.8139      21.958735     -1808.8552     -3181.0491      5628.4292      12.578072      21.78586       20.539905    
      3000   419.25689     -1833.7585      23.357272     -1810.4013     -2698.1773      5613.4392      12.566896      21.766502      20.521655    
      3500   407.86382     -1834.6828      22.722551     -1811.9603      6058.3539      5530.0142      12.50433       21.658134      20.419485    
      4000   396.4182      -1841.4309      22.084903     -1819.346       3083.7847      5487.64        12.472309      21.602673      20.367196    
      4500   370.83516     -1843.1751      20.659643     -1822.5155      781.16815      5491.0291      12.474876      21.60712       20.371388    
      5000   405.60115     -1842.3987      22.596495     -1819.8022     -519.51113      5506.1858      12.486344      21.626982      20.390114    
      5500   442.84436     -1844.7307      24.671356     -1820.0594     -1096.5806      5500.4916      12.482038      21.619524      20.383083    
      6000   418.40329     -1846.3278      23.309717     -1823.0181      3330.5096      5471.6885      12.460213      21.581722      20.347442    
      6500   393.76739     -1847.615       21.937224     -1825.6777      5668.4708      5443.3664      12.438677      21.544421      20.312275    
      7000   379.0786      -1847.4643      21.118894     -1826.3454     -758.83232      5490.1543      12.474214      21.605972      20.370306    
      7500   395.21595     -1846.9025      22.017924     -1824.8846     -3692.2922      5500.8332      12.482296      21.619972      20.383505    
      8000   401.26478     -1846.8811      22.354911     -1824.5262     -3349.888       5492.3246      12.475857      21.608819      20.37299     
      8500   395.44008     -1848.2173      22.030411     -1826.1869      1158.0832      5476.1639      12.463609      21.587604      20.352988    
      9000   394.35552     -1848.7509      21.969989     -1826.7809     -124.1957       5457.1247      12.449148      21.562557      20.329373    
      9500   405.50091     -1849.1561      22.590911     -1826.5652      2215.1975      5448.3469      12.44247       21.550989      20.318468    
     10000   397.23067     -1847.9674      22.130167     -1825.8373      1955.0747      5475.7206      12.463273      21.587021      20.352439    
     10500   419.5072      -1846.6774      23.371217     -1823.3062     -144.8239       5475.9474      12.463445      21.58732       20.35272     
     11000   400.54047     -1848.2799      22.314559     -1825.9654     -1640.7395      5472.4014      12.460754      21.582659      20.348326    
     11500   391.45601     -1849.2981      21.808454     -1827.4896     -3809.9927      5456.1122      12.448378      21.561223      20.328116    
     12000   396.59184     -1848.9756      22.094577     -1826.881       5656.1919      5410.8548      12.413863      21.501442      20.271754    
     12500   374.98662     -1851.1751      20.890926     -1830.2842     -1397.4047      5409.2547      12.41264       21.499322      20.269756    
     13000   403.65322     -1853.0204      22.487974     -1830.5324      401.99686      5417.766       12.419146      21.510593      20.280381    
     13500   371.92435     -1854.0111      20.720323     -1833.2907      9265.5735      5340.5894      12.359894      21.407964      20.183622    
     14000   378.971       -1854.2508      21.1129       -1833.1379     -198.79342      5407.6726      12.411429      21.497226      20.267779    
     14500   374.67522     -1853.372       20.873577     -1832.4984      3170.8715      5391.5541      12.399086      21.475846      20.247622    
     15000   418.02011     -1854.4994      23.28837      -1831.211       6010.407       5361.6397      12.376111      21.436054      20.210105    
     15500   381.21382     -1858.9484      21.23785      -1837.7105      2815.688       5321.8688      12.345435      21.38292       20.160011    
     16000   391.23162     -1857.3808      21.795953     -1835.5849     -565.96629      5342.3163      12.361226      21.410271      20.185797    
     16500   414.46423     -1858.3113      23.090267     -1835.2211     -2717.2118      5351.2577      12.368118      21.422209      20.197052    
     17000   380.36899     -1861.5086      21.190783     -1840.3178      1441.8729      5315.4385      12.340461      21.374305      20.151888    
     17500   395.02514     -1860.9018      22.007294     -1838.8945      488.72048      5314.734       12.339915      21.37336       20.150997    
     18000   392.12843     -1861.8063      21.845915     -1839.9603     -6154.8953      5340.2822      12.359657      21.407553      20.183235    
     18500   408.70314     -1863.02        22.769311     -1840.2507     -3917.5431      5320.7958      12.344605      21.381483      20.158656    
     19000   382.99763     -1865.8141      21.337228     -1844.4769     -2994.3053      5297.234       12.326356      21.349876      20.128856    
     19500   406.80232     -1864.7568      22.663414     -1842.0934     -3247.6048      5287.8726      12.319091      21.337292      20.116991    
     20000   406.68066     -1863.8417      22.656636     -1841.1851      7421.8935      5275.8691      12.309762      21.321134      20.101758    
Loop time of 179.576 on 8 procs for 20000 steps with 432 atoms

Performance: 19.245 ns/day, 1.247 hours/ns, 111.374 timesteps/s, 48.113 katom-step/s
92.4% CPU use with 1 MPI tasks x 8 OpenMP threads

MPI task timing breakdown:
Section |  min time  |  avg time  |  max time  |%varavg| %total
---------------------------------------------------------------
Pair    | 161.96     | 161.96     | 161.96     |   0.0 | 90.19
Neigh   | 0.039724   | 0.039724   | 0.039724   |   0.0 |  0.02
Comm    | 0.15204    | 0.15204    | 0.15204    |   0.0 |  0.08
Output  | 0.002395   | 0.002395   | 0.002395   |   0.0 |  0.00
Modify  | 17.396     | 17.396     | 17.396     |   0.0 |  9.69
Other   |            | 0.02934    |            |       |  0.02

Nlocal:            432 ave         432 max         432 min
Histogram: 1 0 0 0 0 0 0 0 0 0
Nghost:           2795 ave        2795 max        2795 min
Histogram: 1 0 0 0 0 0 0 0 0 0
Neighs:          37683 ave       37683 max       37683 min
Histogram: 1 0 0 0 0 0 0 0 0 0
FullNghs:        75366 ave       75366 max       75366 min
Histogram: 1 0 0 0 0 0 0 0 0 0

Total # of neighbors = 75366
Ave neighs/atom = 174.45833
Neighbor list builds = 46
Dangerous builds = 0
=== STAGE 3: NPT Production at 400 K ===
No /omp style for force computation currently active
Setting up Verlet run ...
  Unit style    : metal
  Current step  : 0
  Time step     : 0.001
Per MPI rank memory allocation (min/avg/max) = 18.86 | 18.86 | 18.86 Mbytes
   Step          Temp          PotEng         KinEng         TotEng         Press          Volume           Lx             Ly             Lz      
         0   406.68066     -1863.8417      22.656636     -1841.1851      7421.8935      5275.8691      12.309762      21.321134      20.101758    
       500   412.45453     -1866.0048      22.978305     -1843.0265     -8380.6059      5296.5743      12.325845      21.348989      20.12802     
      1000   370.14421     -1865.6218      20.621149     -1845.0007     -7420.9781      5293.7288      12.323637      21.345165      20.124415    
      1500   395.30208     -1865.9574      22.022723     -1843.9347      1265.1346      5255.2813      12.29373       21.293364      20.075576    
      2000   408.63868     -1865.5279      22.76572      -1842.7622      2505.7873      5268.3285      12.303895      21.310971      20.092177    
      2500   405.94376     -1864.7314      22.615583     -1842.1158     -5949.128       5279.0324      12.312222      21.325394      20.105775    
      3000   420.01616     -1866.373       23.399572     -1842.9734      4688.7393      5254.0313      12.292755      21.291676      20.073985    
      3500   395.21513     -1866.3738      22.017879     -1844.3559      2689.6711      5254.6498      12.293237      21.292511      20.074772    
      4000   415.43017     -1865.9847      23.144081     -1842.8407      1179.4165      5247.948       12.288009      21.283455      20.066234    
      4500   427.47736     -1865.9218      23.815243     -1842.1065     -6145.5132      5268.7348      12.304211      21.311519      20.092693    
      5000   405.65728     -1866.3835      22.599622     -1843.7839      13996.88       5211.7367      12.259681      21.23439       20.019975    
      5500   389.38695     -1864.2384      21.693184     -1842.5452     -1833.9103      5275.8653      12.309759      21.321129      20.101753    
      6000   434.46044     -1865.1796      24.204279     -1840.9754     -581.77485      5267.1142      12.30295       21.309334      20.090633    
      6500   435.07545     -1865.5836      24.238542     -1841.3451      5679.6224      5244.1372      12.285034      21.278302      20.061376    
      7000   402.66818     -1865.0601      22.433096     -1842.627      -6604.8901      5266.4951      12.302468      21.308499      20.089846    
      7500   384.59105     -1865.3714      21.425999     -1843.9454      8242.8119      5211.8786      12.259792      21.234583      20.020156    
      8000   393.49869     -1866.9764      21.922254     -1845.0542     -8769.1354      5260.4007      12.29772       21.300276      20.082093    
      8500   351.30174     -1866.3596      19.571415     -1846.7882     -4501.9842      5264.658       12.301037      21.306021      20.087509    
      9000   401.55026     -1864.3689      22.370816     -1841.9981      2982.8915      5234.1181      12.277205      21.264743      20.048592    
      9500   389.60904     -1865.9655      21.705557     -1844.26        3246.6163      5242.7073      12.283917      21.276368      20.059552    
     10000   381.76515     -1866.597       21.268565     -1845.3285     -1926.4254      5252.6526      12.29168       21.289813      20.072229    
     10500   417.14169     -1869.332       23.239432     -1846.0926      3097.0009      5216.4283      12.263358      21.24076       20.02598     
     11000   395.6829      -1866.1058      22.043938     -1844.0619      1388.1973      5234.1428      12.277224      21.264776      20.048623    
     11500   399.40847     -1866.4023      22.251494     -1844.1508     -860.06699      5253.8153      12.292586      21.291384      20.07371     
     12000   385.07801     -1866.6616      21.453128     -1845.2084     -4696.1477      5257.9171      12.295785      21.296924      20.078932    
     12500   409.95539     -1866.7446      22.839075     -1843.9055     -3398.7632      5255.3183      12.293758      21.293414      20.075623    
     13000   412.24269     -1866.6441      22.966503     -1843.6776      4520.9234      5231.4814      12.275143      21.261172      20.045225    
     13500   407.52324     -1866.4812      22.703577     -1843.7776     -6026.934       5267.4971      12.303248      21.30985       20.091119    
     14000   389.96281     -1867.7339      21.725266     -1846.0086     -2201.0759      5244.2491      12.285121      21.278454      20.061519    
     14500   401.30125     -1868.3754      22.356943     -1846.0184      436.52886      5245.5658      12.286149      21.280235      20.063198    
     15000   382.88167     -1866.2108      21.330768     -1844.8801     -6183.4157      5273.2377      12.307716      21.317589      20.098415    
     15500   399.66814     -1865.7811      22.265961     -1843.5152     -1954.2613      5267.0276      12.302882      21.309217      20.090523    
     16000   385.52462     -1866.6055      21.478009     -1845.1275      506.53275      5238.7867      12.280854      21.271063      20.054551    
     16500   395.70383     -1866.1338      22.045105     -1844.0887     -5975.3906      5263.1343      12.29985       21.303965      20.085571    
     17000   395.13342     -1865.4574      22.013326     -1843.444       3561.9955      5240.825       12.282447      21.273822      20.057152    
     17500   389.47248     -1868.0547      21.697949     -1846.3568      5213.8144      5241.6055      12.283056      21.274878      20.058147    
     18000   390.8463      -1866.8903      21.774486     -1845.1158      4975.6713      5232.202       12.275707      21.262148      20.046145    
     18500   417.27832     -1867.5733      23.247043     -1844.3263     -6543.4566      5248.715       12.288607      21.284492      20.067212    
     19000   395.27132     -1868.083       22.021009     -1846.062       4603.2609      5230.0828      12.274049      21.259277      20.043438    
     19500   382.13807     -1866.8381      21.289341     -1845.5488     -1812.337       5249.9636      12.289582      21.28618       20.068803    
     20000   411.92037     -1866.5143      22.948546     -1843.5658      3688.8295      5239.7277      12.281589      21.272337      20.055752    
     20500   403.97528     -1867.5373      22.505917     -1845.0314      2131.9193      5234.5037      12.277506      21.265265      20.049084    
     21000   403.12833     -1865.2573      22.458732     -1842.7985     -1827.7315      5259.9184      12.297344      21.299625      20.081479    
     21500   402.38775     -1864.1784      22.417473     -1841.7609     -1297.5825      5261.3171      12.298434      21.301513      20.083259    
     22000   392.00901     -1866.3112      21.839262     -1844.4719      7322.5561      5221.0734      12.266997      21.247062      20.031923    
     22500   379.64666     -1866.096       21.150542     -1844.9455      3065.6047      5248.8197      12.288689      21.284634      20.067345    
     23000   405.31899     -1865.5339      22.580776     -1842.9531     -7647.6998      5294.0635      12.323897      21.345615      20.124839    
     23500   442.59363     -1867.1558      24.657388     -1842.4984      4941.7877      5241.1709      12.282717      21.27429       20.057593    
     24000   405.09639     -1866.7628      22.568375     -1844.1944     -2027.1615      5248.1527      12.288168      21.283732      20.066495    
     24500   402.84919     -1866.2338      22.443181     -1843.7906      6882.4878      5225.9763      12.270836      21.253711      20.038191    
     25000   401.85927     -1864.8782      22.388031     -1842.4901     -2787.9403      5261.2461      12.298379      21.301417      20.083169    
     25500   428.44164     -1867.3752      23.868965     -1843.5062      2166.8816      5252.0555      12.291214      21.289007      20.071468    
     26000   401.2589      -1867.7437      22.354584     -1845.3892      346.53535      5249.3984      12.289141      21.285416      20.068083    
     26500   404.24844     -1867.8086      22.521134     -1845.2874     -5798.1764      5282.4101      12.314848      21.329942      20.110062    
     27000   397.59275     -1866.7953      22.150338     -1844.645       898.20981      5243.0649      12.284196      21.276852      20.060008    
     27500   412.29632     -1866.1421      22.969491     -1843.1726     -1552.2619      5252.5633      12.29161       21.289693      20.072115    
     28000   400.55182     -1864.33        22.315192     -1842.0148     -5043.8078      5270.2603      12.305399      21.313576      20.094632    
     28500   409.28762     -1866.3726      22.801873     -1843.5708      2807.8         5221.0777      12.267001      21.247068      20.031928    
     29000   399.12839     -1867.6834      22.235891     -1845.4475     -7713.2893      5262.445       12.299313      21.303035      20.084694    
     29500   406.32766     -1866.6065      22.63697      -1843.9695      3431.5949      5233.1061      12.276414      21.263372      20.0473      
     30000   427.55637     -1866.3681      23.819645     -1842.5485     -1642.4773      5246.1191      12.286581      21.280983      20.063903    
     30500   410.33853     -1865.448       22.86042      -1842.5876     -6415.2829      5271.5345      12.30639       21.315293      20.096251    
     31000   386.41581     -1866.5492      21.527658     -1845.0215     -1073.9849      5244.2475      12.28512       21.278452      20.061517    
     31500   377.81712     -1866.3981      21.048616     -1845.3495      2699.8784      5254.5299      12.293144      21.292349      20.07462     
     32000   435.41879     -1867.2845      24.25767      -1843.0268      7799.3634      5225.8716      12.270754      21.253569      20.038057    
     32500   414.91586     -1865.7003      23.115428     -1842.5849      2548.9394      5252.0369      12.291199      21.288982      20.071444    
     33000   409.63815     -1866.7335      22.821401     -1843.9121      621.32418      5241.4537      12.282938      21.274672      20.057953    
     33500   398.9129      -1867.1401      22.223886     -1844.9163     -1594.0001      5246.7911      12.287106      21.281891      20.064759    
     34000   400.48153     -1865.9592      22.311276     -1843.648      -2362.6805      5249.8136      12.289465      21.285977      20.068612    
     34500   421.79485     -1865.1072      23.498665     -1841.6085      6223.5657      5226.7212      12.271419      21.254721      20.039143    
     35000   410.58479     -1866.4695      22.87414      -1843.5954      255.39625      5244.8583      12.285597      21.279278      20.062295    
     35500   394.39306     -1867.4007      21.97208      -1845.4286      6054.7282      5227.09        12.271707      21.255221      20.039614    
     36000   399.04648     -1867.5656      22.231327     -1845.3343     -11080.453      5277.3168      12.310888      21.323084      20.103596    
     36500   407.59433     -1867.3042      22.707538     -1844.5967      1586.0935      5229.9156      12.273918      21.25905       20.043225    
     37000   420.3953      -1867.0717      23.420694     -1843.651      -4593.8367      5244.6582      12.28544       21.279007      20.06204     
     37500   434.52544     -1865.6852      24.2079       -1841.4773      9679.0307      5206.3754      12.255475      21.227106      20.013107    
     38000   395.68833     -1865.56        22.044241     -1843.5157     -1789.4424      5259.8227      12.29727       21.299496      20.081358    
     38500   381.92657     -1866.4121      21.277558     -1845.1346      6220.6196      5229.3485      12.273475      21.258282      20.0425      
     39000   405.86253     -1867.0827      22.611057     -1844.4716      7683.5661      5230.1941      12.274136      21.259428      20.043581    
     39500   413.71847     -1867.6758      23.04872      -1844.6271      9197.2092      5218.5078      12.264988      21.243582      20.028641    
     40000   411.20396     -1865.541       22.908634     -1842.6324     -1537.9283      5256.1553      12.294411      21.294545      20.076689    
     40500   434.45876     -1866.3478      24.204185     -1842.1436     -299.61722      5240.9965      12.282581      21.274054      20.05737     
     41000   397.406       -1867.2471      22.139934     -1845.1071     -3208.6183      5265.5021      12.301694      21.30716       20.088583    
     41500   393.65084     -1866.9809      21.93073      -1845.0502      6974.9011      5235.8421      12.278553      21.267077      20.050793    
     42000   425.75479     -1866.7679      23.719277     -1843.0486      12382.263      5226.8409      12.271513      21.254883      20.039296    
     42500   417.43854     -1865.8484      23.25597      -1842.5924     -643.04908      5266.3831      12.30238       21.308348      20.089703    
     43000   410.28911     -1866.2769      22.857667     -1843.4192      2992.8266      5237.2888      12.279684      21.269036      20.052639    
     43500   393.46538     -1866.714       21.920398     -1844.7936      8539.266       5232.4905      12.275932      21.262538      20.046514    
     44000   402.54517     -1866.4847      22.426243     -1844.0585     -4248.5755      5268.9199      12.304355      21.311769      20.092928    
     44500   396.73902     -1865.9054      22.102776     -1843.8026     -9562.1061      5284.8735      12.316762      21.333257      20.113187    
     45000   376.00066     -1867.2342      20.947419     -1846.2868      6906.3474      5226.0715      12.27091       21.25384       20.038313    
     45500   409.65934     -1866.5719      22.822582     -1843.7493      6007.301       5244.8943      12.285625      21.279326      20.062341    
     46000   419.75853     -1866.3556      23.385219     -1842.9704     -2810.5148      5257.7152      12.295627      21.296651      20.078675    
     46500   361.21076     -1865.1547      20.123457     -1845.0312      2489.0965      5236.9301      12.279403      21.26855       20.052182    
     47000   386.34707     -1867.6678      21.523829     -1846.144      -364.69307      5250.9323      12.290337      21.287489      20.070037    
     47500   404.02983     -1866.9074      22.508955     -1844.3985     -5519.707       5264.6142      12.301003      21.305962      20.087453    
     48000   414.4032      -1866.8285      23.086868     -1843.7416     -2332.0855      5253.8963      12.29265       21.291494      20.073813    
     48500   398.03095     -1867.0817      22.174751     -1844.907      -5650.0967      5254.2586      12.292932      21.291983      20.074274    
     49000   379.48289     -1867.5878      21.141418     -1846.4464      5249.7951      5225.5543      12.270506      21.253139      20.037652    
     49500   387.72223     -1866.9727      21.600441     -1845.3723      739.21679      5235.5819      12.278349      21.266725      20.050461    
     50000   393.20196     -1866.2643      21.905723     -1844.3586      658.67762      5244.0698      12.284981      21.278211      20.06129     
Loop time of 469.164 on 8 procs for 50000 steps with 432 atoms

Performance: 9.208 ns/day, 2.606 hours/ns, 106.573 timesteps/s, 46.039 katom-step/s
92.7% CPU use with 1 MPI tasks x 8 OpenMP threads

MPI task timing breakdown:
Section |  min time  |  avg time  |  max time  |%varavg| %total
---------------------------------------------------------------
Pair    | 423.9      | 423.9      | 423.9      |   0.0 | 90.35
Neigh   | 0.001824   | 0.001824   | 0.001824   |   0.0 |  0.00
Comm    | 0.38427    | 0.38427    | 0.38427    |   0.0 |  0.08
Output  | 0.006083   | 0.006083   | 0.006083   |   0.0 |  0.00
Modify  | 44.808     | 44.808     | 44.808     |   0.0 |  9.55
Other   |            | 0.06483    |            |       |  0.01

Nlocal:            432 ave         432 max         432 min
Histogram: 1 0 0 0 0 0 0 0 0 0
Nghost:           2799 ave        2799 max        2799 min
Histogram: 1 0 0 0 0 0 0 0 0 0
Neighs:          38165 ave       38165 max       38165 min
Histogram: 1 0 0 0 0 0 0 0 0 0
FullNghs:        76330 ave       76330 max       76330 min
Histogram: 1 0 0 0 0 0 0 0 0 0

Total # of neighbors = 76330
Ave neighs/atom = 176.68981
Neighbor list builds = 2
Dangerous builds = 0

=== FINAL RESULTS: DHCP at 400 K ===
Atoms: 432 | PE/atom: -4.32120521531472 eV/atom
WARNING: Detected non-ASCII characters in input. Will try to continue by replacing with ASCII equivalents where known. (src/input.cpp:479)
Volume: 5244.06980722958 …³ | Area: 261.402422391713 ²
==========================================
DHCP 400 432 -4.32120521531472 5244.06980722958 12.2849810314358 21.2782113153301 20.061290018848 261.402422391713
Simulation complete!
Total wall time: 0:10:50
