LAMMPS (10 Sep 2025)
  using 8 OpenMP thread(s) per MPI task
Loaded 1 plugins from C:\Users\harsh\Downloads\LAMMPS 64-bit 10Sep2025\plugins
using multi-threaded neighbor list subroutines
Reading data file ...
  orthogonal box = (0 0 0) to (16.228101 28.107895 26.500377)
  1 by 1 by 1 MPI processor grid
  reading atoms ...
  432 atoms
  read_data CPU = 0.003 seconds
=== STAGE 1: Energy Minimization ===
Switching to 'neigh_modify every 1 delay 0 check yes' setting during minimization
No /omp style for force computation currently active
Neighbor list info ...
  update: every = 1 steps, delay = 0 steps, check = yes
  max neighbors/atom: 4000, page size: 100000
  master list distance cutoff = 8
  ghost atom cutoff = 8
  binsize = 4, bins = 5 8 7
  2 neighbor lists, perpetual/occasional/extra = 2 0 0
  (1) pair meam, perpetual
      attributes: full, newton on, omp
      pair build: full/bin/atomonly/omp
      stencil: full/bin/3d
      bin: standard
  (2) pair meam, perpetual, half/full from (1)
      attributes: half, newton on, omp
      pair build: halffull/newton/omp
      stencil: none
      bin: none
Setting up cg style minimization ...
  Unit style    : metal
  Current step  : 0
Per MPI rank memory allocation (min/avg/max) = 19.3 | 19.3 | 19.3 Mbytes
   Step          Temp          PotEng         KinEng         TotEng         Press          Volume           Lx             Ly             Lz      
         0   0             -1041.7492      0             -1041.7492     -127183.94      12087.822      16.228101      28.107895      26.500377    
       198   0             -1578.1195      0             -1578.1195     -24314.478      12087.822      16.228101      28.107895      26.500377    
Loop time of 1.41553 on 8 procs for 198 steps with 432 atoms

96.0% CPU use with 1 MPI tasks x 8 OpenMP threads

Minimization stats:
  Stopping criterion = energy tolerance
  Energy initial, next-to-last, final = 
     -1041.74922137211  -1578.11832471319    -1578.119456866
  Force two-norm initial, final = 6.9614003 6.2154834
  Force max component initial, final = 0.73166672 1.8422789
  Final line search alpha, max atom move = 0.093267507 0.17182476
  Iterations, force evaluations = 198 373

MPI task timing breakdown:
Section |  min time  |  avg time  |  max time  |%varavg| %total
---------------------------------------------------------------
Pair    | 1.3213     | 1.3213     | 1.3213     |   0.0 | 93.34
Neigh   | 0.006396   | 0.006396   | 0.006396   |   0.0 |  0.45
Comm    | 0.002576   | 0.002576   | 0.002576   |   0.0 |  0.18
Output  | 0          | 0          | 0          |   0.0 |  0.00
Modify  | 0.079262   | 0.079262   | 0.079262   |   0.0 |  5.60
Other   |            | 0.006034   |            |       |  0.43

Nlocal:            432 ave         432 max         432 min
Histogram: 1 0 0 0 0 0 0 0 0 0
Nghost:           1780 ave        1780 max        1780 min
Histogram: 1 0 0 0 0 0 0 0 0 0
Neighs:          17360 ave       17360 max       17360 min
Histogram: 1 0 0 0 0 0 0 0 0 0
FullNghs:        34720 ave       34720 max       34720 min
Histogram: 1 0 0 0 0 0 0 0 0 0

Total # of neighbors = 34720
Ave neighs/atom = 80.37037
Neighbor list builds = 9
Dangerous builds = 0
Minimized PE/atom: -3.65305429830093 eV/atom
=== STAGE 2: NPT Equilibration at 650 K ===
No /omp style for force computation currently active
Setting up Verlet run ...
  Unit style    : metal
  Current step  : 0
  Time step     : 0.002
Per MPI rank memory allocation (min/avg/max) = 18.2 | 18.2 | 18.2 Mbytes
   Step          Temp          PotEng         KinEng         TotEng         Press          Volume           Lx             Ly             Lz      
         0   650           -1578.1195      36.21223      -1541.9072     -21114.652      12087.822      16.228101      28.107895      26.500377    
       500   954.40069     -1659.8784      53.170733     -1606.7077     -10181.319      8399.6823      14.373834      24.896211      23.472372    
      1000   713.51762     -1735.4237      39.750867     -1695.6728     -3013.638       7129.5079      13.609375      23.572129      22.224017    
      1500   696.78415     -1764.2918      38.818627     -1725.4731     -2907.8062      6678.1439      13.315892      23.063801      21.74476     
      2000   645.32875     -1778.2457      35.951989     -1742.2937      5207.7261      6303.0071      13.061737      22.623592      21.329727    
      2500   656.46335     -1793.3846      36.57231      -1756.8123      3926.0454      6007.041       12.854007      22.263793      20.990506    
      3000   648.65433     -1807.5849      36.137261     -1771.4477     -12993.219      5817.2622      12.717192      22.026822      20.767087    
      3500   700.46925     -1826.5652      39.023928     -1787.5412     -1872.3198      5482.4656      12.468388      21.595881      20.360792    
      4000   711.26412     -1836.4017      39.625322     -1796.7763      3621.4555      5353.3826      12.369755      21.425044      20.199725    
      4500   672.98812     -1842.9235      37.492924     -1805.4305     -711.24299      5294.3129      12.32409       21.34595       20.125155    
      5000   616.15932     -1840.0198      34.326927     -1805.6929      92.958724      5300.0431      12.328535      21.353649      20.132413    
      5500   674.12665     -1848.1342      37.556353     -1810.5779     -3628.1205      5285.9428      12.317592      21.334696      20.114544    
      6000   628.22744     -1847.8739      34.999256     -1812.8747      464.66948      5253.0889      12.29202       21.290403      20.072784    
      6500   631.92641     -1848.2591      35.20533      -1813.0538      3304.2492      5226.5401      12.271277      21.254475      20.038912    
      7000   670.16586     -1852.973       37.335692     -1815.6373      4275.7935      5201.639       12.251758      21.220667      20.007037    
      7500   586.98556     -1854.6782      32.701624     -1821.9766     -2588.2369      5232.3544      12.275826      21.262354      20.04634     
      8000   651.75807     -1858.8626      36.310174     -1822.5524      4307.4964      5131.2204      12.196219      21.124471      19.916343    
      8500   648.76529     -1854.9461      36.143442     -1818.8027     -3299.1185      5172.681       12.22898       21.181215      19.969841    
      9000   655.28835     -1855.8897      36.50685      -1819.3829     -7791.708       5160.6905      12.219524      21.164836      19.954398    
      9500   676.03848     -1858.5194      37.662863     -1820.8566     -5062.7475      5149.7651      12.210894      21.14989       19.940307    
     10000   602.7795      -1857.3014      33.581522     -1823.7198      2249.1525      5103.2344      12.174006      21.085997      19.880068    
     10500   636.71079     -1857.8649      35.471873     -1822.393      -1693.894       5100.7889      12.172061      21.082628      19.876892    
     11000   675.24911     -1855.7419      37.618886     -1818.123      -10116.612      5130.1518      12.195373      21.123005      19.91496     
     11500   666.31471     -1858.9473      37.121141     -1821.8262      5014.6013      5037.6433      12.121624      20.995269      19.794529    
     12000   642.08491     -1861.6898      35.771271     -1825.9185      841.23682      5070.3723      12.147818      21.040638      19.837304    
     12500   637.32054     -1861.1025      35.505843     -1825.5966     -5301.8777      5061.7748      12.140948      21.028739      19.826085    
     13000   677.11499     -1860.9785      37.722836     -1823.2556     -6208.0786      5083.1459      12.158011      21.058293      19.853949    
     13500   647.61583     -1861.949       36.079405     -1825.8696      1191.611       5018.2113      12.106018      20.968238      19.769045    
     14000   646.36765     -1865.2307      36.009868     -1829.2209     -545.27474      5004.8954      12.095301      20.949675      19.751543    
     14500   649.46634     -1866.1951      36.182499     -1830.0126      8088.7394      4992.1047      12.084988      20.931814      19.734703    
     15000   665.54775     -1865.7049      37.078412     -1828.6265     -3970.6216      5037.9212      12.121847      20.995655      19.794893    
     15500   678.48786     -1868.5181      37.79932      -1830.7188     -3754.9741      5009.403       12.098931      20.955963      19.757471    
     16000   644.70963     -1867.7476      35.917497     -1831.8301      8450.7476      4966.5456      12.064328      20.896029      19.700965    
     16500   724.63289     -1869.5122      40.370112     -1829.1421      3203.8256      4961.4818      12.060227      20.888925      19.694268    
     17000   708.81979     -1867.0515      39.489146     -1827.5624      9009.8377      4977.1507      12.072909      20.910892      19.714978    
     17500   654.80953     -1868.9417      36.480174     -1832.4615     -2239.6067      4985.4329      12.079602      20.922484      19.725907    
     18000   623.32968     -1869.2754      34.726396     -1834.549      -6678.7711      4988.015       12.081687      20.926096      19.729313    
     18500   611.23111     -1870.48        34.052371     -1836.4276     -4195.3527      4981.8185      12.076682      20.917427      19.721139    
     19000   616.21161     -1870.6935      34.32984      -1836.3636     -8031.6503      4979.2084      12.074573      20.913773      19.717695    
     19500   650.26396     -1871.5812      36.226935     -1835.3542      3420.3518      4977.322       12.073048      20.911132      19.715204    
     20000   638.42576     -1871.4714      35.567416     -1835.904      -1183.7556      4973.7338      12.070146      20.906106      19.710466    
Loop time of 182.653 on 8 procs for 20000 steps with 432 atoms

Performance: 18.921 ns/day, 1.268 hours/ns, 109.498 timesteps/s, 47.303 katom-step/s
92.9% CPU use with 1 MPI tasks x 8 OpenMP threads

MPI task timing breakdown:
Section |  min time  |  avg time  |  max time  |%varavg| %total
---------------------------------------------------------------
Pair    | 165.38     | 165.38     | 165.38     |   0.0 | 90.54
Neigh   | 0.066263   | 0.066263   | 0.066263   |   0.0 |  0.04
Comm    | 0.14944    | 0.14944    | 0.14944    |   0.0 |  0.08
Output  | 0.002356   | 0.002356   | 0.002356   |   0.0 |  0.00
Modify  | 17.028     | 17.028     | 17.028     |   0.0 |  9.32
Other   |            | 0.03022    |            |       |  0.02

Nlocal:            432 ave         432 max         432 min
Histogram: 1 0 0 0 0 0 0 0 0 0
Nghost:           2752 ave        2752 max        2752 min
Histogram: 1 0 0 0 0 0 0 0 0 0
Neighs:          39783 ave       39783 max       39783 min
Histogram: 1 0 0 0 0 0 0 0 0 0
FullNghs:        79566 ave       79566 max       79566 min
Histogram: 1 0 0 0 0 0 0 0 0 0

Total # of neighbors = 79566
Ave neighs/atom = 184.18056
Neighbor list builds = 74
Dangerous builds = 0
=== STAGE 3: NPT Production at 650 K ===
No /omp style for force computation currently active
Setting up Verlet run ...
  Unit style    : metal
  Current step  : 0
  Time step     : 0.001
Per MPI rank memory allocation (min/avg/max) = 18.92 | 18.92 | 18.92 Mbytes
   Step          Temp          PotEng         KinEng         TotEng         Press          Volume           Lx             Ly             Lz      
         0   638.42576     -1871.4714      35.567416     -1835.904      -1183.7556      4973.7338      12.070146      20.906106      19.710466    
       500   630.63089     -1871.6577      35.133155     -1836.5246      4500.697       4956.7253      12.056371      20.882248      19.687972    
      1000   626.84847     -1873.3902      34.922432     -1838.4678     -3625.77        4968.5624      12.065961      20.898858      19.703632    
      1500   623.16594     -1874.0575      34.717274     -1839.3402     -4947.6191      4968.9698      12.066291      20.899429      19.70417     
      2000   648.20359     -1871.4796      36.112149     -1835.3675     -3080.1876      4976.4159      12.072315      20.909863      19.714008    
      2500   650.98077     -1872.572       36.266869     -1836.3052      4036.8576      4951.1962      12.051887      20.87448       19.680649    
      3000   645.17321     -1874.1507      35.943324     -1838.2074      3337.2752      4927.3125      12.032477      20.840861      19.648953    
      3500   657.17108     -1873.9182      36.611739     -1837.3064      4165.988       4957.1215      12.056693      20.882804      19.688497    
      4000   662.49324     -1870.7722      36.908242     -1833.864       2741.3438      4949.2063      12.050272      20.871684      19.678012    
      4500   643.82597     -1869.467       35.868267     -1833.5987      730.01624      4962.7385      12.061245      20.890689      19.69593     
      5000   632.12356     -1871.6323      35.216313     -1836.416      -1595.526       4959.181       12.058362      20.885696      19.691223    
      5500   635.05231     -1874.1493      35.379477     -1838.7698      2627.0879      4928.9507      12.03381       20.843171      19.65113     
      6000   641.74863     -1872.8725      35.752537     -1837.1199     -5405.1219      4966.2061      12.064053      20.895553      19.700517    
      6500   654.3147      -1874.1968      36.452606     -1837.7442      3487.8941      4941.8605      12.044307      20.861352      19.668272    
      7000   647.09751     -1871.2498      36.050529     -1835.1993      11850.187      4887.5111      11.999991      20.784594      19.595903    
      7500   726.11127     -1873.4502      40.452474     -1832.9978      11439.291      4914.32        12.021892      20.822527      19.631667    
      8000   614.74664     -1872.5255      34.248225     -1838.2773      4954.5469      4920.8304      12.027198      20.831718      19.640332    
      8500   604.53518     -1873.1645      33.679334     -1839.4852     -2222.3362      4955.9852      12.055771      20.881209      19.686992    
      9000   658.95907     -1874.033       36.711349     -1837.3217     -3471.0589      4951.6935      12.05229       20.875179      19.681308    
      9500   686.18462     -1875.5991      38.228115     -1837.371       1064.0696      4932.5596      12.036747      20.848257      19.655925    
     10000   622.44226     -1874.1656      34.676957     -1839.4887      872.38632      4932.8917      12.037017      20.848724      19.656366    
     10500   653.87127     -1871.693       36.427902     -1835.2651      361.24591      4937.303       12.040604      20.854937      19.662224    
     11000   646.69588     -1873.0258      36.028153     -1836.9976     -3323.6267      4956.0101      12.055792      20.881243      19.687025    
     11500   608.92547     -1874.4959      33.923922     -1840.572      -1630.2265      4932.9867      12.037094      20.848858      19.656492    
     12000   628.97927     -1875.8431      35.041141     -1840.8019      6274.5724      4910.7943      12.019016      20.817547      19.626971    
     12500   681.2844      -1872.4414      37.955119     -1834.4863      12068.648      4888.5379      12.000831      20.78605       19.597275    
     13000   666.32371     -1874.0853      37.121642     -1836.9636      16192.738      4901.1516      12.011144      20.803912      19.614116    
     13500   649.1768      -1875.2762      36.166368     -1839.1099     -4498.1162      4948.2506      12.049496      20.87034       19.676745    
     14000   613.61329     -1874.2378      34.185085     -1840.0528     -2885.8537      4958.8337      12.058081      20.885208      19.690763    
     14500   676.18834     -1874.4629      37.671211     -1836.7917      7121.3717      4916.4728      12.023647      20.825567      19.634533    
     15000   661.73646     -1872.7812      36.866081     -1835.9151      894.14936      4934.7607      12.038537      20.851357      19.658848    
     15500   642.57628     -1873.7953      35.798646     -1837.9966     -2655.0807      4950.3831      12.051227      20.873338      19.679571    
     16000   639.40676     -1875.84        35.622068     -1840.2179     -7420.899       4940.3527      12.043082      20.85923       19.666271    
     16500   618.99476     -1873.2219      34.484893     -1838.737      -3295.9548      4937.4446      12.040719      20.855137      19.662411    
     17000   682.49195     -1872.649       38.022392     -1834.6266      5030.591       4928.0667      12.033091      20.841925      19.649955    
     17500   673.32338     -1872.9831      37.511601     -1835.4715      10126.579      4918.0097      12.0249        20.827737      19.636579    
     18000   644.18655     -1873.6117      35.888356     -1837.7234      12319.263      4897.7124      12.008334      20.799045      19.609527    
     18500   645.29852     -1877.0998      35.950305     -1841.1495      12024.047      4888.3367      12.000667      20.785764      19.597007    
     19000   693.84275     -1873.8552      38.654759     -1835.2004      5303.8907      4913.6621      12.021355      20.821598      19.630791    
     19500   693.34735     -1873.5037      38.627159     -1834.8766     -7722.8354      4960.5138      12.059442      20.887567      19.692987    
     20000   601.96127     -1873.422       33.535938     -1839.8861     -10959.192      4964.8098      12.062923      20.893595      19.69867     
     20500   641.89787     -1872.9223      35.760851     -1837.1615     -12011.27       4965.8763      12.063786      20.895091      19.700081    
     21000   678.84772     -1874.6357      37.819368     -1836.8163      7060.6496      4914.4869      12.022028      20.822763      19.631889    
     21500   620.73633     -1874.0759      34.581917     -1839.494      -1587.0693      4924.1153      12.029874      20.836353      19.644702    
     22000   612.0981      -1876.8789      34.100672     -1842.7783     -7894.1152      4952.1814      12.052686      20.875865      19.681954    
     22500   638.6378      -1874.7817      35.579229     -1839.2025      505.66879      4943.491       12.045632      20.863646      19.670434    
     23000   667.6454      -1873.1068      37.195275     -1835.9116      1564.9819      4924.8522      12.030474      20.837392      19.645682    
     23500   649.62978     -1875.1743      36.191604     -1838.9827     -1494.9749      4929.9769      12.034645      20.844617      19.652494    
     24000   637.96885     -1875.8025      35.541961     -1840.2605     -7109.7395      4927.4251      12.032569      20.84102       19.649102    
     24500   629.64098     -1877.0789      35.078006     -1842.0009     -2994.0241      4915.8226      12.023117      20.824649      19.633668    
     25000   623.45001     -1876.6175      34.7331       -1841.8844      316.13653      4902.2442      12.012037      20.805458      19.615574    
     25500   689.51677     -1875.3902      38.413753     -1836.9764      1925.3332      4929.0127      12.033861      20.843258      19.651212    
     26000   639.90041     -1873.9304      35.64957      -1838.2808      4227.7333      4930.371       12.034966      20.845173      19.653017    
     26500   637.43531     -1877.1208      35.512237     -1841.6085     -4578.5768      4932.0541      12.036335      20.847544      19.655253    
     27000   629.49091     -1878.1504      35.069645     -1843.0808     -1486.7486      4935.8944      12.039459      20.852954      19.660353    
     27500   659.99213     -1876.9877      36.768902     -1840.2188     -5212.9954      4927.4555      12.032593      20.841063      19.649143    
     28000   663.44753     -1875.2429      36.961407     -1838.2815      2012.9029      4913.2273      12.021001      20.820984      19.630212    
     28500   678.52374     -1875.7749      37.801319     -1837.9735      7558.1475      4889.8515      12.001906      20.787911      19.599031    
     29000   611.58501     -1878.5571      34.072087     -1844.485      -5132.1958      4923.4731      12.029351      20.835447      19.643848    
     29500   651.88099     -1872.761       36.317022     -1836.444       3397.1561      4933.6083      12.0376        20.849734      19.657318    
     30000   689.45383     -1875.608       38.410247     -1837.1978     -81.008291      4938.0118      12.04118       20.855935      19.663164    
     30500   695.79499     -1879.4941      38.76352      -1840.7306     -488.70033      4916.7521      12.023875      20.825962      19.634905    
     31000   648.27896     -1874.2606      36.116349     -1838.1443      3266.9684      4927.6212      12.032728      20.841297      19.649363    
     31500   665.3443      -1875.5268      37.067078     -1838.4597     -4839.9494      4960.3391      12.059301      20.887322      19.692756    
     32000   673.06766     -1877.0779      37.497355     -1839.5805      1213.23        4917.8575      12.024776      20.827522      19.636376    
     32500   626.24923     -1877.0232      34.889048     -1842.1342      9499.6463      4882.4775      11.99587       20.777456      19.589174    
     33000   637.42394     -1875.9478      35.511603     -1840.4362      4570.8967      4915.8281      12.023121      20.824657      19.633675    
     33500   643.87763     -1874.9105      35.871145     -1839.0394      2142.4369      4918.1036      12.024976      20.82787       19.636704    
     34000   685.53392     -1873.0388      38.191864     -1834.847      -4714.3967      4955.7575      12.055587      20.880889      19.686691    
     34500   659.99752     -1874.499       36.769203     -1837.7298     -9081.7284      4960.6258      12.059533      20.887724      19.693135    
     35000   627.89657     -1876.2298      34.980823     -1841.249      -4583.7908      4931.6611      12.036016      20.846991      19.654731    
     35500   619.26387     -1876.6415      34.499885     -1842.1416      3378.2332      4895.0049      12.006121      20.795211      19.605913    
     36000   665.87515     -1878.1539      37.096652     -1841.0572      1521.7843      4910.3384      12.018644      20.816902      19.626364    
     36500   655.39173     -1874.9766      36.512609     -1838.464       4225.3373      4909.0616      12.017602      20.815098      19.624663    
     37000   641.20326     -1874.9704      35.722153     -1839.2482      1040.314       4930.1606      12.034795      20.844876      19.652738    
     37500   632.83258     -1877.3716      35.255813     -1842.1158      968.47097      4909.1498      12.017674      20.815223      19.62478     
     38000   650.13759     -1875.2858      36.219895     -1839.0659     -3001.958       4935.8866      12.039452      20.852943      19.660343    
     38500   654.88066     -1878.2607      36.484137     -1841.7766     -7395.0182      4937.1906      12.040512      20.854779      19.662074    
     39000   646.99051     -1876.0558      36.044568     -1840.0112     -9062.487       4963.6472      12.061981      20.891964      19.697132    
     39500   654.42795     -1876.0093      36.458915     -1839.5503      2445.8043      4920.1082      12.02661       20.830699      19.639372    
     40000   622.3193      -1875.8638      34.670107     -1841.1937      3845.8309      4920.7996      12.027173      20.831675      19.640292    
     40500   653.78517     -1880.0888      36.423106     -1843.6657      4627.1508      4903.4146      12.012993      20.807113      19.617135    
     41000   698.09399     -1876.5883      38.8916       -1837.6967      12844.156      4867.8789      11.983902      20.756728      19.56963     
     41500   690.66463     -1875.9376      38.477702     -1837.4599      1656.517       4930.6442      12.035188      20.845558      19.65338     
     42000   632.11407     -1875.8801      35.215784     -1840.6643     -6155.3015      4961.2337      12.060026      20.888577      19.693939    
     42500   625.06223     -1877.3274      34.822918     -1842.5045     -7354.9515      4965.0605      12.063126      20.893946      19.699002    
     43000   618.55994     -1877.3583      34.460669     -1842.8976     -1284.8285      4927.4093      12.032556      20.840998      19.649081    
     43500   656.96106     -1877.1487      36.600038     -1840.5487     -4883.8704      4932.2051      12.036458      20.847757      19.655454    
     44000   644.89646     -1874.8038      35.927906     -1838.8759      9350.5694      4890.8414      12.002716      20.789314      19.600353    
     44500   621.69081     -1877.4283      34.635093     -1842.7933      12017.08       4886.6273      11.999268      20.783341      19.594722    
     45000   621.8028      -1879.8174      34.641332     -1845.1761      3500.2366      4908.4168      12.017076      20.814186      19.623803    
     45500   660.86027     -1877.771       36.817267     -1840.9537     -2433.0231      4935.3526      12.039018      20.852191      19.659634    
     46000   662.18479     -1877.7489      36.891058     -1840.8579      775.37331      4921.4974      12.027742      20.832659      19.64122     
     46500   636.30209     -1877.3316      35.449104     -1841.8825     -4081.7867      4935.1765      12.038875      20.851943      19.6594      
     47000   670.67704     -1875.091       37.364171     -1837.7268      1481.0944      4934.416       12.038256      20.850872      19.65839     
     47500   635.55625     -1877.5993      35.407552     -1842.1917     -2263.7614      4922.778       12.028785      20.834466      19.642923    
     48000   624.87882     -1878.2929      34.8127       -1843.4802     -8574.7672      4925.6418      12.031117      20.838506      19.646732    
     48500   639.45334     -1878.4576      35.624663     -1842.8329     -5387.9475      4934.8958      12.038647      20.851548      19.659028    
     49000   648.9281      -1875.9483      36.152513     -1839.7958     -5412.5772      4938.364       12.041466      20.856431      19.663632    
     49500   618.83124     -1875.2453      34.475783     -1840.7695      138.03076      4935.8994      12.039463      20.852961      19.66036     
     50000   680.9488      -1879.0029      37.936422     -1841.0664     -10514.256      4942.2182      12.044598      20.861856      19.668746    
Loop time of 495.671 on 8 procs for 50000 steps with 432 atoms

Performance: 8.715 ns/day, 2.754 hours/ns, 100.873 timesteps/s, 43.577 katom-step/s
92.2% CPU use with 1 MPI tasks x 8 OpenMP threads

MPI task timing breakdown:
Section |  min time  |  avg time  |  max time  |%varavg| %total
---------------------------------------------------------------
Pair    | 448.97     | 448.97     | 448.97     |   0.0 | 90.58
Neigh   | 0.017319   | 0.017319   | 0.017319   |   0.0 |  0.00
Comm    | 0.39348    | 0.39348    | 0.39348    |   0.0 |  0.08
Output  | 0.005595   | 0.005595   | 0.005595   |   0.0 |  0.00
Modify  | 46.224     | 46.224     | 46.224     |   0.0 |  9.33
Other   |            | 0.06464    |            |       |  0.01

Nlocal:            432 ave         432 max         432 min
Histogram: 1 0 0 0 0 0 0 0 0 0
Nghost:           2783 ave        2783 max        2783 min
Histogram: 1 0 0 0 0 0 0 0 0 0
Neighs:          39907 ave       39907 max       39907 min
Histogram: 1 0 0 0 0 0 0 0 0 0
FullNghs:        79814 ave       79814 max       79814 min
Histogram: 1 0 0 0 0 0 0 0 0 0

Total # of neighbors = 79814
Ave neighs/atom = 184.75463
Neighbor list builds = 17
Dangerous builds = 0

=== FINAL RESULTS: HCP at 650 K ===
Atoms: 432 | PE/atom: -4.34540899536168 eV/atom
WARNING: Detected non-ASCII characters in input. Will try to continue by replacing with ASCII equivalents where known. (src/input.cpp:479)
Volume: 4942.21815358695 …³ | Area: 251.272661238136 ²
==========================================
HCP 650 432 -4.34540899536168 4942.21815358695 12.0445979016976 20.8618555213637 19.6687460117403 251.272661238136
Simulation complete!
Total wall time: 0:11:19
