LAMMPS (10 Sep 2025)
  using 8 OpenMP thread(s) per MPI task
Loaded 1 plugins from C:\Users\kumar\AppData\Local\LAMMPS 64-bit 10Sep2025\plugins
using multi-threaded neighbor list subroutines
Reading data file ...
  orthogonal box = (0 0 0) to (15.9693 27.659638 26.077757)
  1 by 1 by 1 MPI processor grid
  reading atoms ...
  432 atoms
  read_data CPU = 0.015 seconds
=== STAGE 1: Energy Minimization ===
Switching to 'neigh_modify every 1 delay 0 check yes' setting during minimization
No /omp style for force computation currently active
Neighbor list info ...
  update: every = 1 steps, delay = 0 steps, check = yes
  max neighbors/atom: 4000, page size: 100000
  master list distance cutoff = 8
  ghost atom cutoff = 8
  binsize = 4, bins = 4 7 7
  2 neighbor lists, perpetual/occasional/extra = 2 0 0
  (1) pair meam, perpetual
      attributes: full, newton on, omp
      pair build: full/bin/atomonly/omp
      stencil: full/bin/3d
      bin: standard
  (2) pair meam, perpetual, half/full from (1)
      attributes: half, newton on, omp
      pair build: halffull/newton/omp
      stencil: none
      bin: none
Setting up cg style minimization ...
  Unit style    : metal
  Current step  : 0
Per MPI rank memory allocation (min/avg/max) = 19.38 | 19.38 | 19.38 Mbytes
   Step          Temp          PotEng         KinEng         TotEng         Press          Volume           Lx             Ly             Lz      
         0   0             -1063.0014      0             -1063.0014     -98908.506      11518.677      15.9693        27.659638      26.077757    
       199   0             -1514.8088      0             -1514.8088     -42020.183      11518.677      15.9693        27.659638      26.077757    
Loop time of 2.98342 on 8 procs for 199 steps with 432 atoms

91.7% CPU use with 1 MPI tasks x 8 OpenMP threads

Minimization stats:
  Stopping criterion = energy tolerance
  Energy initial, next-to-last, final = 
     -1063.00138832532  -1514.80862608392   -1514.8087647375
  Force two-norm initial, final = 23.617185 8.3904115
  Force max component initial, final = 2.6954602 2.8147863
  Final line search alpha, max atom move = 0.043415469 0.12220527
  Iterations, force evaluations = 199 480

MPI task timing breakdown:
Section |  min time  |  avg time  |  max time  |%varavg| %total
---------------------------------------------------------------
Pair    | 2.891      | 2.891      | 2.891      |   0.0 | 96.90
Neigh   | 0.00412    | 0.00412    | 0.00412    |   0.0 |  0.14
Comm    | 0.006652   | 0.006652   | 0.006652   |   0.0 |  0.22
Output  | 0          | 0          | 0          |   0.0 |  0.00
Modify  | 0.072582   | 0.072582   | 0.072582   |   0.0 |  2.43
Other   |            | 0.009076   |            |       |  0.30

Nlocal:            432 ave         432 max         432 min
Histogram: 1 0 0 0 0 0 0 0 0 0
Nghost:           1724 ave        1724 max        1724 min
Histogram: 1 0 0 0 0 0 0 0 0 0
Neighs:          17165 ave       17165 max       17165 min
Histogram: 1 0 0 0 0 0 0 0 0 0
FullNghs:        34330 ave       34330 max       34330 min
Histogram: 1 0 0 0 0 0 0 0 0 0

Total # of neighbors = 34330
Ave neighs/atom = 79.467593
Neighbor list builds = 6
Dangerous builds = 0
Minimized PE/atom: -3.5065017702257 eV/atom
=== STAGE 2: NPT Equilibration at 400 K ===
No /omp style for force computation currently active
Setting up Verlet run ...
  Unit style    : metal
  Current step  : 0
  Time step     : 0.002
Per MPI rank memory allocation (min/avg/max) = 18.25 | 18.25 | 18.25 Mbytes
   Step          Temp          PotEng         KinEng         TotEng         Press          Volume           Lx             Ly             Lz      
         0   400           -1514.8088      22.284449     -1492.5243     -39953.764      11518.677      15.9693        27.659638      26.077757    
       500   795.88186     -1690.9936      44.339472     -1646.6542     -8318.0809      6812.9943      13.404924      23.218009      21.890149    
      1000   463.40111     -1772.6377      25.816596     -1746.8211     -2188.9983      5863.9566      12.751127      22.085601      20.822504    
      1500   383.77026     -1799.6634      21.380272     -1778.2831     -843.25189      5621.0596      12.57258       21.776347      20.530937    
      2000   388.44763     -1803.5411      21.640853     -1781.9003     -3889.2175      5588.1379      12.547986      21.73375       20.490776    
      2500   379.10805     -1811.3186      21.120535     -1790.198      -577.01823      5528.3034      12.50304       21.655901      20.417379    
      3000   400.57339     -1812.6469      22.316393     -1790.3305     -3184.0222      5533.301       12.506807      21.662425      20.42353     
      3500   408.62718     -1815.2019      22.765079     -1792.4368     -936.8339       5495.1139      12.477969      21.612476      20.376438    
      4000   385.45733     -1821.8681      21.474261     -1800.3939     -3274.734       5464.2298      12.454548      21.571911      20.338193    
      4500   368.40015     -1823.6343      20.523986     -1803.1103     -827.92676      5460.2635      12.451534      21.56669       20.33327     
      5000   414.11836     -1825.363       23.070998     -1802.292       4764.9657      5439.1698      12.43548       21.538883      20.307053    
      5500   415.37369     -1826.372       23.140934     -1803.2311     -1368.0774      5447.7982      12.442052      21.550266      20.317786    
      6000   399.17399     -1827.983       22.238431     -1805.7446     -4349.3771      5454.0066      12.446776      21.558449      20.325501    
      6500   378.37478     -1828.4214      21.079683     -1807.3417      1747.0407      5437.2615      12.434025      21.536363      20.304678    
      7000   394.28104     -1829.4664      21.965839     -1807.5005     -3158.9892      5446.1786      12.440819      21.54813       20.315772    
      7500   389.42033     -1829.5452      21.695044     -1807.8501     -660.42025      5435.2309      12.432477      21.533682      20.30215     
      8000   401.8484      -1832.4254      22.387426     -1810.038      -615.70098      5421.2         12.42177       21.515136      20.284665    
      8500   412.54536     -1833.6781      22.983365     -1810.6948     -2670.9725      5412.0236      12.414757      21.50299       20.273214    
      9000   394.25577     -1835.368       21.964431     -1813.4035     -2098.4737      5412.8899      12.41542       21.504137      20.274295    
      9500   403.00968     -1837.1631      22.452122     -1814.711       4922.6282      5371.1359      12.383414      21.448702      20.22203     
     10000   418.15843     -1838.2388      23.296075     -1814.9427      797.93689      5378.7631      12.389273      21.45885       20.231597    
     10500   418.77822     -1837.4844      23.330605     -1814.1538     -231.30806      5386.0019      12.394828      21.468472      20.240669    
     11000   411.15251     -1836.9946      22.905768     -1814.0888     -1246.0716      5378.6042      12.389151      21.458638      20.231398    
     11500   408.00935     -1838.5136      22.730659     -1815.7829     -5637.9322      5396.7585      12.403074      21.482754      20.254135    
     12000   375.90217     -1839.5864      20.941932     -1818.6444      44.735243      5376.146       12.387263      21.455369      20.228316    
     12500   382.99978     -1838.1237      21.337347     -1816.7864      6317.1977      5360.8529      12.375506      21.435005      20.209117    
     13000   398.91747     -1837.7588      22.22414      -1815.5347     -4138.2577      5390.8825      12.398571      21.474954      20.246781    
     13500   401.82262     -1838.2867      22.385989     -1815.9008     -2733.8309      5392.3949      12.39973       21.476963      20.248674    
     14000   382.25712     -1838.7093      21.295973     -1817.4133     -2346.2929      5397.4857      12.403631      21.483719      20.255045    
     14500   392.77332     -1841.1631      21.881842     -1819.2813     -8426.7211      5401.4345      12.406655      21.488957      20.259983    
     15000   382.42224     -1839.338       21.305172     -1818.0328      5477.886       5367.7069      12.380778      21.444136      20.217726    
     15500   379.27033     -1838.0631      21.129576     -1816.9336      8196.8371      5349.1588      12.366501      21.419408      20.194411    
     16000   404.0496      -1836.1524      22.510057     -1813.6423     -151.01159      5382.4534      12.392105      21.463756      20.236223    
     16500   357.016       -1839.0689      19.889762     -1819.1791     -5248.6541      5404.7786      12.409215      21.493391      20.264163    
     17000   375.37613     -1840.3419      20.912626     -1819.4293     -576.00933      5381.4719      12.391352      21.462451      20.234993    
     17500   379.78782     -1838.841       21.158406     -1817.6826     -2464.7066      5390.2786      12.398108      21.474153      20.246025    
     18000   396.81813     -1838.65        22.107183     -1816.5428      1402.8354      5365.1998      12.37885       21.440797      20.214578    
     18500   369.09311     -1841.8575      20.562591     -1821.295       1852.9766      5344.4418      12.362865      21.41311       20.188474    
     19000   395.0975      -1839.9311      22.011325     -1817.9198     -2791.6648      5374.59        12.386068      21.453298      20.226364    
     19500   393.48721     -1838.8975      21.921614     -1816.9759     -3423.3915      5391.4811      12.39903       21.475749      20.247531    
     20000   415.44564     -1839.1455      23.144943     -1816.0005      34.709792      5374.801       12.38623       21.453579      20.226629    
Loop time of 281.359 on 8 procs for 20000 steps with 432 atoms

Performance: 12.283 ns/day, 1.954 hours/ns, 71.083 timesteps/s, 30.708 katom-step/s
96.7% CPU use with 1 MPI tasks x 8 OpenMP threads

MPI task timing breakdown:
Section |  min time  |  avg time  |  max time  |%varavg| %total
---------------------------------------------------------------
Pair    | 255.27     | 255.27     | 255.27     |   0.0 | 90.73
Neigh   | 0.025743   | 0.025743   | 0.025743   |   0.0 |  0.01
Comm    | 0.35064    | 0.35064    | 0.35064    |   0.0 |  0.12
Output  | 0.004159   | 0.004159   | 0.004159   |   0.0 |  0.00
Modify  | 25.63      | 25.63      | 25.63      |   0.0 |  9.11
Other   |            | 0.07427    |            |       |  0.03

Nlocal:            432 ave         432 max         432 min
Histogram: 1 0 0 0 0 0 0 0 0 0
Nghost:           2677 ave        2677 max        2677 min
Histogram: 1 0 0 0 0 0 0 0 0 0
Neighs:          36619 ave       36619 max       36619 min
Histogram: 1 0 0 0 0 0 0 0 0 0
FullNghs:        73238 ave       73238 max       73238 min
Histogram: 1 0 0 0 0 0 0 0 0 0

Total # of neighbors = 73238
Ave neighs/atom = 169.53241
Neighbor list builds = 29
Dangerous builds = 0
=== STAGE 3: NPT Production at 400 K ===
No /omp style for force computation currently active
Setting up Verlet run ...
  Unit style    : metal
  Current step  : 0
  Time step     : 0.001
Per MPI rank memory allocation (min/avg/max) = 18.67 | 18.67 | 18.67 Mbytes
   Step          Temp          PotEng         KinEng         TotEng         Press          Volume           Lx             Ly             Lz      
         0   415.44564     -1839.1455      23.144943     -1816.0005      34.709792      5374.801       12.38623       21.453579      20.226629    
       500   417.10208     -1840.5906      23.237225     -1817.3534      506.96071      5363.6698      12.377673      21.438759      20.212656    
      1000   409.87396     -1840.2464      22.834538     -1817.4118     -4224.8467      5372.8384      12.384722      21.450968      20.224166    
      1500   389.00947     -1840.8838      21.672154     -1819.2117      1922.3305      5345.5527      12.363721      21.414593      20.189872    
      2000   365.64775     -1840.2465      20.370647     -1819.8759     -1520.7355      5383.4129      12.392842      21.465031      20.237426    
      2500   382.96863     -1838.0634      21.335612     -1816.7278     -5551.886       5403.2609      12.408053      21.491379      20.262266    
      3000   413.58749     -1839.6323      23.041423     -1816.5908     -245.39833      5386.8743      12.395497      21.469631      20.241762    
      3500   410.16032     -1841.4267      22.850492     -1818.5762      1629.7746      5361.5101      12.376012      21.435881      20.209943    
      4000   379.05645     -1840.98        21.11766      -1819.8623      6689.7863      5337.9264      12.357839      21.404405      20.180266    
      4500   399.63489     -1839.2093      22.264108     -1816.9452      6170.07        5347.4157      12.365157      21.417081      20.192218    
      5000   383.20206     -1839.7863      21.348617     -1818.4377     -2629.6416      5381.6542      12.391492      21.462694      20.235222    
      5500   420.04224     -1841.0228      23.401025     -1817.6218      1974.0897      5377.3462      12.388185      21.456965      20.229821    
      6000   397.72573     -1838.9093      22.157747     -1816.7516     -4130.0967      5383.6821      12.393048      21.465389      20.237763    
      6500   412.472       -1839.7354      22.979278     -1816.7561     -326.76232      5389.0507      12.397166      21.472522      20.244488    
      7000   379.13803     -1840.654       21.122205     -1819.5318     -3577.3667      5374.9156      12.386318      21.453732      20.226772    
      7500   417.72913     -1841.3689      23.272159     -1818.0968      3816.413       5349.5674      12.366816      21.419953      20.194925    
      8000   442.10961     -1840.0382      24.630423     -1815.4078      13814.404      5318.1115      12.342529      21.377887      20.155265    
      8500   405.58781     -1839.6401      22.595752     -1817.0443     -4375.2701      5383.9953      12.393288      21.465805      20.238155    
      9000   391.79304     -1840.086       21.82723      -1818.2587      2980.1397      5353.6907      12.369992      21.425455      20.200113    
      9500   403.05477     -1841.3714      22.454634     -1818.9167      2809.6611      5349.1079      12.366462      21.41934       20.194347    
     10000   401.07703     -1839.4589      22.344452     -1817.1145     -495.65734      5373.0098      12.384854      21.451196      20.224381    
     10500   418.63126     -1840.6805      23.322417     -1817.3581     -6092.6998      5386.1654      12.394953      21.468689      20.240874    
     11000   421.64903     -1840.5143      23.490541     -1817.0238     -943.8871       5382.1394      12.391864      21.463339      20.23583     
     11500   392.23268     -1842.4267      21.851723     -1820.5749     -3866.9395      5385.1912      12.394206      21.467395      20.239654    
     12000   410.29067     -1840.6745      22.857754     -1817.8167      925.40729      5362.6379      12.376879      21.437384      20.211359    
     12500   424.50594     -1841.0095      23.649702     -1817.3598      5722.0015      5347.2861      12.365058      21.416908      20.192054    
     13000   408.95904     -1840.7728      22.783567     -1817.9892     -7611.034       5398.3921      12.404325      21.484921      20.256178    
     13500   368.79932     -1840.4714      20.546224     -1819.9252      3512.9036      5369.8005      12.382387      21.446924      20.220354    
     14000   383.37871     -1838.6         21.358458     -1817.2416     -1288.2537      5387.4028      12.395902      21.470333      20.242424    
     14500   412.27032     -1839.5288      22.968042     -1816.5608     -1438.1264      5365.3757      12.378985      21.441031      20.214798    
     15000   380.54085     -1840.2959      21.200358     -1819.0956      3688.1001      5358.6017      12.373773      21.432004      20.206287    
     15500   406.3397      -1840.6354      22.637641     -1817.9978     -953.75353      5361.7757      12.376216      21.436235      20.210276    
     16000   413.23599     -1839.3575      23.021841     -1816.3357      3272.7586      5372.7217      12.384632      21.450812      20.22402     
     16500   415.15173     -1840.5585      23.128569     -1817.43       -1676.7156      5374.0679      12.385667      21.452604      20.225709    
     17000   390.79491     -1840.4394      21.771623     -1818.6678      3277.7388      5354.3876      12.370529      21.426385      20.200989    
     17500   382.11697     -1841.0843      21.288165     -1819.7962      2838.683       5354.9806      12.370986      21.427176      20.201735    
     18000   410.12981     -1840.6697      22.848792     -1817.8209      1065.8548      5381.705       12.391531      21.462761      20.235285    
     18500   379.50452     -1840.9996      21.142623     -1819.857       2779.6596      5356.5598      12.372202      21.429282      20.203721    
     19000   370.48804     -1840.2776      20.640305     -1819.6373     -1713.4525      5385.3925      12.39436       21.467662      20.239906    
     19500   413.19306     -1840.4757      23.019449     -1817.4562     -2750.2707      5382.486       12.39213       21.463799      20.236264    
     20000   400.54366     -1841.0795      22.314737     -1818.7648     -2003.87        5388.3935      12.396662      21.471649      20.243665    
     20500   393.17552     -1840.8199      21.90425      -1818.9156     -6115.9129      5385.664       12.394569      21.468023      20.240246    
     21000   424.5869      -1840.134       23.654213     -1816.4797      2179.7723      5364.2987      12.378157      21.439597      20.213446    
     21500   395.9275      -1841.1424      22.057566     -1819.0848      1643.4178      5356.9599      12.37251       21.429815      20.204224    
     22000   400.4968      -1841.9107      22.312126     -1819.5986     -3440.6771      5385.8686      12.394726      21.468295      20.240502    
     22500   377.47013     -1840.5967      21.029285     -1819.5674      3246.8723      5359.847       12.374732      21.433664      20.207853    
     23000   419.20594     -1841.5767      23.354433     -1818.2223      7321.0557      5348.6325      12.366095      21.418705      20.193749    
     23500   395.71961     -1840.1333      22.045983     -1818.0873      752.07524      5371.8526      12.383964      21.449656      20.222929    
     24000   429.28123     -1841.467       23.915739     -1817.5513      1997.3052      5353.3369      12.36972       21.424983      20.199668    
     24500   380.72746     -1839.7378      21.210754     -1818.527       1113.8201      5356.8372      12.372415      21.429652      20.204069    
     25000   411.08341     -1841.0115      22.901918     -1818.1096     -849.22391      5374.8875      12.386296      21.453694      20.226737    
     25500   408.16475     -1840.3975      22.739316     -1817.6582     -2351.4559      5388.9752      12.397108      21.472421      20.244393    
     26000   392.96982     -1841.237       21.89279      -1819.3442     -673.45629      5377.6084      12.388386      21.457314      20.23015     
     26500   367.47195     -1839.8516      20.472275     -1819.3794     -3614.5677      5383.3514      12.392794      21.46495       20.237349    
     27000   392.92094     -1840.7686      21.890067     -1818.8786      4984.1904      5355.6809      12.371525      21.42811       20.202616    
     27500   420.10541     -1840.6328      23.404544     -1817.2283      3606.9971      5363.5807      12.377605      21.43864       20.212544    
     28000   426.18206     -1839.8488      23.743081     -1816.1057     -5396.3342      5402.4488      12.407432      21.490302      20.261251    
     28500   376.04857     -1839.0077      20.950088     -1818.0577      1096.6208      5371.001       12.38331       21.448522      20.221861    
     29000   382.27034     -1840.4144      21.29671      -1819.1177      7479.4388      5348.5646      12.366043      21.418615      20.193664    
     29500   417.06525     -1840.9144      23.235173     -1817.6792      5283.4888      5358.6398      12.373803      21.432055      20.206335    
     30000   433.69587     -1839.0975      24.161684     -1814.9358      2159.0703      5368.2593      12.381203      21.444872      20.218419    
     30500   419.20915     -1839.9553      23.354612     -1816.6007      5557.0544      5354.582       12.370679      21.426644      20.201234    
     31000   391.0179      -1840.3754      21.784046     -1818.5914      2192.6277      5361.8696      12.376288      21.43636       20.210394    
     31500   389.23403     -1840.9091      21.684665     -1819.2244     -639.77356      5358.6019      12.373774      21.432005      20.206288    
     32000   373.20627     -1840.5942      20.79174      -1819.8024      6591.3842      5345.5336      12.363707      21.414568      20.189848    
     32500   388.94832     -1839.5399      21.668748     -1817.8711     -1707.345       5376.3607      12.387428      21.455654      20.228585    
     33000   412.98706     -1840.1776      23.007973     -1817.1696     -600.70579      5381.9745      12.391738      21.463119      20.235623    
     33500   411.47104     -1838.7252      22.923513     -1815.8017     -6378.4131      5391.2984      12.39889       21.475507      20.247302    
     34000   409.6888      -1839.72        22.824223     -1816.8958      6260.1029      5352.1479      12.368804      21.423397      20.198172    
     34500   389.51378     -1839.6611      21.70025      -1817.9608      1123.7178      5356.5618      12.372203      21.429284      20.203723    
     35000   402.99504     -1840.6355      22.451306     -1818.1841     -2462.5253      5379.518       12.389852      21.459853      20.232544    
     35500   408.31898     -1838.2813      22.747909     -1815.5334      2773.3116      5379.9421      12.390178      21.460417      20.233076    
     36000   447.54297     -1841.0085      24.933121     -1816.0753      293.84886      5367.7234      12.380791      21.444158      20.217746    
     36500   402.27027     -1841.0119      22.410928     -1818.6009      3446.0083      5359.5151      12.374477      21.433222      20.207436    
     37000   413.86766     -1839.6845      23.057032     -1816.6274     -4279.978       5385.4823      12.394429      21.467781      20.240018    
     37500   406.87162     -1839.5464      22.667275     -1816.8791      1567.8913      5368.5269      12.381408      21.445228      20.218755    
     38000   389.26443     -1841.1385      21.686358     -1819.4521      1733.1766      5362.7618      12.376975      21.437549      20.211515    
     38500   381.95024     -1842.0627      21.278877     -1820.7838      4909.9362      5336.6799      12.356877      21.402739      20.178695    
     39000   399.212       -1840.415       22.240549     -1818.1745     -1864.6983      5374.472       12.385977      21.453142      20.226216    
     39500   379.94305     -1839.15        21.167054     -1817.9829      196.79585      5374.7188      12.386167      21.45347       20.226525    
     40000   395.24421     -1839.9748      22.019499     -1817.9553     -646.41891      5377.2192      12.388087      21.456796      20.229662    
     40500   394.04466     -1841.9986      21.95267      -1820.0459     -1240.429       5376.027       12.387171      21.45521       20.228166    
     41000   389.8678      -1841.6416      21.719973     -1819.9216      2158.5435      5371.4046      12.38362       21.449059      20.222367    
     41500   393.2246      -1841.5812      21.906984     -1819.6742     -4127.5172      5383.4671      12.392883      21.465103      20.237494    
     42000   422.19295     -1841.0773      23.520843     -1817.5565      602.19216      5383.805       12.393142      21.465552      20.237917    
     42500   397.53194     -1839.8841      22.146951     -1817.7372     -11.040056      5379.8822      12.390132      21.460338      20.233       
     43000   402.33262     -1841.7769      22.414402     -1819.3625      1029.6903      5380.5819      12.390669      21.461268      20.233878    
     43500   398.4042      -1843.6186      22.195545     -1821.423      -4515.1187      5386.1087      12.39491       21.468614      20.240803    
     44000   397.85822     -1842.6935      22.165128     -1820.5284      5881.0707      5342.0902      12.361051      21.409969      20.185512    
     44500   419.96984     -1842.2493      23.396991     -1818.8524      2493.9617      5354.9189      12.370938      21.427093      20.201657    
     45000   415.7421      -1841.2647      23.161459     -1818.1032     -172.69601      5381.9943      12.391753      21.463146      20.235648    
     45500   387.43459     -1841.3429      21.584416     -1819.7585      653.58475      5379.4256      12.389781      21.459731      20.232428    
     46000   413.73727     -1843.5717      23.049768     -1820.5219     -1215.8867      5359.6109      12.37455       21.43335       20.207556    
     46500   388.72863     -1841.8187      21.656508     -1820.1622      5275.4384      5349.7268      12.366939      21.420166      20.195126    
     47000   423.90908     -1842.3952      23.616451     -1818.7787     -437.9669       5358.6044      12.373776      21.432008      20.206291    
     47500   407.50124     -1843.2704      22.702351     -1820.568      -1484.2197      5369.5498      12.382195      21.44659       20.220039    
     48000   390.32729     -1842.3946      21.745572     -1820.6491     -328.14212      5372.604       12.384542      21.450656      20.223872    
     48500   400.6969      -1841.258       22.323274     -1818.9347     -7368.1194      5384.7352      12.393856      21.466789      20.239082    
     49000   410.18176     -1843.1733      22.851686     -1820.3216      103.59774      5368.9825      12.381759      21.445835      20.219327    
     49500   383.26628     -1841.8767      21.352195     -1820.5245      599.29104      5378.1209      12.38878       21.457996      20.230792    
     50000   428.46586     -1842.7113      23.870314     -1818.841       479.76719      5376.545       12.387569      21.455899      20.228816    
Loop time of 711.858 on 8 procs for 50000 steps with 432 atoms

Performance: 6.069 ns/day, 3.955 hours/ns, 70.239 timesteps/s, 30.343 katom-step/s
96.6% CPU use with 1 MPI tasks x 8 OpenMP threads

MPI task timing breakdown:
Section |  min time  |  avg time  |  max time  |%varavg| %total
---------------------------------------------------------------
Pair    | 647.43     | 647.43     | 647.43     |   0.0 | 90.95
Neigh   | 0.006878   | 0.006878   | 0.006878   |   0.0 |  0.00
Comm    | 0.87941    | 0.87941    | 0.87941    |   0.0 |  0.12
Output  | 0.009655   | 0.009655   | 0.009655   |   0.0 |  0.00
Modify  | 63.367     | 63.367     | 63.367     |   0.0 |  8.90
Other   |            | 0.1645     |            |       |  0.02

Nlocal:            432 ave         432 max         432 min
Histogram: 1 0 0 0 0 0 0 0 0 0
Nghost:           2663 ave        2663 max        2663 min
Histogram: 1 0 0 0 0 0 0 0 0 0
Neighs:          36801 ave       36801 max       36801 min
Histogram: 1 0 0 0 0 0 0 0 0 0
FullNghs:        73602 ave       73602 max       73602 min
Histogram: 1 0 0 0 0 0 0 0 0 0

Total # of neighbors = 73602
Ave neighs/atom = 170.375
Neighbor list builds = 7
Dangerous builds = 0

=== FINAL RESULTS: HCP at 400 K ===
Atoms: 432 | PE/atom: -4.26461601870695 eV/atom
WARNING: Detected non-ASCII characters in input. Will try to continue by replacing with ASCII equivalents where known. (src/input.cpp:479)
Volume: 5376.54499905256 …³ | Area: 265.786440960718 ²
==========================================
HCP 400 432 -4.26461601870695 5376.54499905256 12.3875693033818 21.4558994142748 20.2288159607328 265.786440960718
Simulation complete!
Total wall time: 0:16:36
