LAMMPS (10 Sep 2025)
  using 8 OpenMP thread(s) per MPI task
Loaded 1 plugins from C:\Users\kumar\AppData\Local\LAMMPS 64-bit 10Sep2025\plugins
using multi-threaded neighbor list subroutines
Reading data file ...
  orthogonal box = (0 0 0) to (22.584 22.584 22.584)
  1 by 1 by 1 MPI processor grid
  reading atoms ...
  864 atoms
  read_data CPU = 0.006 seconds
=== STAGE 1: Energy Minimization ===
Switching to 'neigh_modify every 1 delay 0 check yes' setting during minimization
No /omp style for force computation currently active
Neighbor list info ...
  update: every = 1 steps, delay = 0 steps, check = yes
  max neighbors/atom: 4000, page size: 100000
  master list distance cutoff = 8
  ghost atom cutoff = 8
  binsize = 4, bins = 6 6 6
  2 neighbor lists, perpetual/occasional/extra = 2 0 0
  (1) pair meam, perpetual
      attributes: full, newton on, omp
      pair build: full/bin/atomonly/omp
      stencil: full/bin/3d
      bin: standard
  (2) pair meam, perpetual, half/full from (1)
      attributes: half, newton on, omp
      pair build: halffull/newton/omp
      stencil: none
      bin: none
Setting up cg style minimization ...
  Unit style    : metal
  Current step  : 0
Per MPI rank memory allocation (min/avg/max) = 21.26 | 21.26 | 21.26 Mbytes
   Step          Temp          PotEng         KinEng         TotEng         Press          Volume           Lx             Ly             Lz      
         0   0             -3487.2912      0             -3487.2912     -82972.956      11518.677      22.584         22.584         22.584       
        24   0             -3623.5006      0             -3623.5006     -91615.711      11518.677      22.584         22.584         22.584       
Loop time of 1.44669 on 8 procs for 24 steps with 864 atoms

97.2% CPU use with 1 MPI tasks x 8 OpenMP threads

Minimization stats:
  Stopping criterion = energy tolerance
  Energy initial, next-to-last, final = 
     -3487.29119048056  -3623.49988513552  -3623.50063074984
  Force two-norm initial, final = 82.449686 8.4478772
  Force max component initial, final = 6.5613616 3.5254621
  Final line search alpha, max atom move = 0.10811427 0.38115278
  Iterations, force evaluations = 24 55

MPI task timing breakdown:
Section |  min time  |  avg time  |  max time  |%varavg| %total
---------------------------------------------------------------
Pair    | 1.4331     | 1.4331     | 1.4331     |   0.0 | 99.06
Neigh   | 0          | 0          | 0          |   0.0 |  0.00
Comm    | 0.001587   | 0.001587   | 0.001587   |   0.0 |  0.11
Output  | 0          | 0          | 0          |   0.0 |  0.00
Modify  | 0.010617   | 0.010617   | 0.010617   |   0.0 |  0.73
Other   |            | 0.001415   |            |       |  0.10

Nlocal:            864 ave         864 max         864 min
Histogram: 1 0 0 0 0 0 0 0 0 0
Nghost:           3767 ave        3767 max        3767 min
Histogram: 1 0 0 0 0 0 0 0 0 0
Neighs:          76032 ave       76032 max       76032 min
Histogram: 1 0 0 0 0 0 0 0 0 0
FullNghs:       152064 ave      152064 max      152064 min
Histogram: 1 0 0 0 0 0 0 0 0 0

Total # of neighbors = 152064
Ave neighs/atom = 176
Neighbor list builds = 0
Dangerous builds = 0
Minimized PE/atom: -4.19386647077528 eV/atom
=== STAGE 2: NPT Equilibration at 650 K ===
No /omp style for force computation currently active
Setting up Verlet run ...
  Unit style    : metal
  Current step  : 0
  Time step     : 0.002
Per MPI rank memory allocation (min/avg/max) = 20.14 | 20.14 | 20.14 Mbytes
   Step          Temp          PotEng         KinEng         TotEng         Press          Volume           Lx             Ly             Lz      
         0   650           -3623.5006      72.508478     -3550.9922     -84892.058      11518.677      22.584         22.584         22.584       
       500   641.41801     -3588.3136      71.551144     -3516.7625      2809.8223      10649.399      22.000963      22.000963      22.000963    
      1000   634.08505     -3590.9783      70.733141     -3520.2452     -1612.2174      10684.845      22.025346      22.025346      22.025346    
      1500   664.04005     -3588.3261      74.074667     -3514.2515      414.45732      10690.124      22.028973      22.028973      22.028973    
      2000   648.88436     -3584.2802      72.384027     -3511.8961     -6889.6828      10774.832      22.087005      22.087005      22.087005    
      2500   664.72471     -3586.9526      74.151042     -3512.8015      1649.2628      10707.327      22.040783      22.040783      22.040783    
      3000   668.03678     -3590.5078      74.520508     -3515.9873      793.90068      10692.2        22.030399      22.030399      22.030399    
      3500   658.30783     -3590.2185      73.43523      -3516.7832      553.21403      10710.308      22.042828      22.042828      22.042828    
      4000   628.77018     -3590.4793      70.14026      -3520.339       1343.9572      10702.598      22.037538      22.037538      22.037538    
      4500   630.29347     -3588.7509      70.310185     -3518.4407      866.75444      10709.88       22.042535      22.042535      22.042535    
      5000   669.91343     -3591.9289      74.729851     -3517.199      -78.324         10707.458      22.040873      22.040873      22.040873    
      5500   682.47076     -3590.1344      76.13064      -3514.0038     -5033.6242      10765.293      22.080485      22.080485      22.080485    
      6000   641.9104      -3588.5311      71.606072     -3516.9251      806.38899      10703.802      22.038364      22.038364      22.038364    
      6500   646.97954     -3590.0128      72.171542     -3517.8413      6250.3096      10689.096      22.028267      22.028267      22.028267    
      7000   654.33848     -3592.4744      72.992443     -3519.4819      1009.0418      10722.566      22.051234      22.051234      22.051234    
      7500   668.47502     -3592.1952      74.569395     -3517.6258     -1698.0146      10752.123      22.071477      22.071477      22.071477    
      8000   661.39967     -3589.2943      73.780129     -3515.5141      5620.0781      10680.819      22.022579      22.022579      22.022579    
      8500   659.03365     -3591.9353      73.516195     -3518.4191     -1201.8484      10716.825      22.047299      22.047299      22.047299    
      9000   623.18763     -3591.0426      69.517518     -3521.5251     -140.35678      10734.336      22.0593        22.0593        22.0593      
      9500   658.50074     -3590.6009      73.456749     -3517.1441     -3355.5339      10746.704      22.067769      22.067769      22.067769    
     10000   684.80654     -3591.7411      76.3912       -3515.3499      1457.2755      10712.573      22.044382      22.044382      22.044382    
     10500   656.03814     -3589.3249      73.182042     -3516.1428      807.34899      10735.401      22.06003       22.06003       22.06003     
     11000   661.8862      -3589.0346      73.834402     -3515.2002     -4973.9247      10791.763      22.098568      22.098568      22.098568    
     11500   663.69018     -3591.6237      74.035639     -3517.588      -558.08214      10722.108      22.05092       22.05092       22.05092     
     12000   637.26195     -3589.2163      71.08753      -3518.1288     -1414.1071      10754.025      22.072779      22.072779      22.072779    
     12500   635.48687     -3589.5897      70.889517     -3518.7002     -831.452        10754.903      22.07338       22.07338       22.07338     
     13000   625.47739     -3588.0477      69.772944     -3518.2748     -3507.6915      10797.68       22.102606      22.102606      22.102606    
     13500   659.35405     -3594.4293      73.551937     -3520.8774      2703.5486      10730.876      22.056929      22.056929      22.056929    
     14000   656.19786     -3596.4081      73.199859     -3523.2082     -638.25289      10780.923      22.091167      22.091167      22.091167    
     14500   675.0454      -3593.5311      75.30233      -3518.2287      4202.7185      10760.554      22.077245      22.077245      22.077245    
     15000   698.77866     -3596.6252      77.949812     -3518.6754      3970.6025      10743.825      22.065798      22.065798      22.065798    
     15500   667.72311     -3595.5037      74.485518     -3521.0182     -2073.0138      10808.215      22.109792      22.109792      22.109792    
     16000   647.1977      -3598.6883      72.195878     -3526.4924     -3915.4466      10804.942      22.10756       22.10756       22.10756     
     16500   651.54178     -3595.9458      72.680466     -3523.2653      5700.5969      10716.227      22.046888      22.046888      22.046888    
     17000   644.13302     -3596.7295      71.854007     -3524.8755      1834.1311      10739.628      22.062924      22.062924      22.062924    
     17500   668.84871     -3597.6191      74.611081     -3523.008      -1036.532       10802.34       22.105785      22.105785      22.105785    
     18000   619.26726     -3601.2512      69.080194     -3532.171      -3382.304       10795.35       22.101016      22.101016      22.101016    
     18500   645.74577     -3599.1107      72.033913     -3527.0767      2016.3808      10772.641      22.085508      22.085508      22.085508    
     19000   661.45493     -3600.0398      73.786293     -3526.2535     -2818.8344      10795.198      22.100913      22.100913      22.100913    
     19500   640.98148     -3603.0127      71.502449     -3531.5103     -1730.7628      10790.641      22.097802      22.097802      22.097802    
     20000   631.55878     -3599.9962      70.451332     -3529.5449      4991.5248      10740.218      22.063329      22.063329      22.063329    
Loop time of 1764.24 on 8 procs for 20000 steps with 864 atoms

Performance: 1.959 ns/day, 12.252 hours/ns, 11.336 timesteps/s, 9.795 katom-step/s
27.4% CPU use with 1 MPI tasks x 8 OpenMP threads

MPI task timing breakdown:
Section |  min time  |  avg time  |  max time  |%varavg| %total
---------------------------------------------------------------
Pair    | 1678.4     | 1678.4     | 1678.4     |   0.0 | 95.14
Neigh   | 0.021999   | 0.021999   | 0.021999   |   0.0 |  0.00
Comm    | 0.49217    | 0.49217    | 0.49217    |   0.0 |  0.03
Output  | 0.004671   | 0.004671   | 0.004671   |   0.0 |  0.00
Modify  | 85.22      | 85.22      | 85.22      |   0.0 |  4.83
Other   |            | 0.08873    |            |       |  0.01

Nlocal:            864 ave         864 max         864 min
Histogram: 1 0 0 0 0 0 0 0 0 0
Nghost:           3714 ave        3714 max        3714 min
Histogram: 1 0 0 0 0 0 0 0 0 0
Neighs:          73537 ave       73537 max       73537 min
Histogram: 1 0 0 0 0 0 0 0 0 0
FullNghs:       147074 ave      147074 max      147074 min
Histogram: 1 0 0 0 0 0 0 0 0 0

Total # of neighbors = 147074
Ave neighs/atom = 170.22454
Neighbor list builds = 13
Dangerous builds = 0
=== STAGE 3: NPT Production at 650 K ===
No /omp style for force computation currently active
Setting up Verlet run ...
  Unit style    : metal
  Current step  : 0
  Time step     : 0.001
Per MPI rank memory allocation (min/avg/max) = 20.14 | 20.14 | 20.14 Mbytes
   Step          Temp          PotEng         KinEng         TotEng         Press          Volume           Lx             Ly             Lz      
         0   631.55878     -3599.9962      70.451332     -3529.5449      4991.5248      10740.218      22.063329      22.063329      22.063329    
       500   646.67305     -3599.3196      72.137352     -3527.1823     -672.24866      10774.621      22.086861      22.086861      22.086861    
      1000   628.39782     -3603.7239      70.098722     -3533.6251      2838.46        10754.635      22.073197      22.073197      22.073197    
      1500   618.37665     -3604.4925      68.980846     -3535.5116     -4555.1281      10794.057      22.100134      22.100134      22.100134    
      2000   630.02764     -3599.9154      70.280531     -3529.6348     -1283.3745      10805.463      22.107915      22.107915      22.107915    
      2500   673.08163     -3600.4275      75.083269     -3525.3442      2359.5357      10754.964      22.073421      22.073421      22.073421    
      3000   696.55148     -3602.2287      77.701366     -3524.5274      3415.102       10753.525      22.072437      22.072437      22.072437    
      3500   636.6958      -3601.8116      71.024374     -3530.7872      49.956299      10788.907      22.096618      22.096618      22.096618    
      4000   629.97278     -3604.0655      70.274412     -3533.7911     -3995.872       10812.017      22.112385      22.112385      22.112385    
      4500   653.37419     -3606.8936      72.884874     -3534.0087     -2369.527       10777.038      22.088513      22.088513      22.088513    
      5000   652.32933     -3603.3192      72.768319     -3530.5509      2324.6516      10729.802      22.056194      22.056194      22.056194    
      5500   649.08466     -3601.6948      72.406371     -3529.2884     -580.45645      10798.879      22.103424      22.103424      22.103424    
      6000   645.95547     -3596.8055      72.057305     -3524.7482      4082.585       10769.897      22.083633      22.083633      22.083633    
      6500   657.1132      -3598.5656      73.301967     -3525.2636     -1407.9402      10793.898      22.100025      22.100025      22.100025    
      7000   646.56277     -3601.6317      72.12505      -3529.5066     -2670.2725      10809.359      22.110572      22.110572      22.110572    
      7500   632.05033     -3601.9116      70.506165     -3531.4054      3089.5011      10762.666      22.078689      22.078689      22.078689    
      8000   638.86289     -3604.6395      71.266117     -3533.3734      2852.9658      10756.064      22.074174      22.074174      22.074174    
      8500   659.84555     -3600.8597      73.606765     -3527.253       283.41077      10767.568      22.08204       22.08204       22.08204     
      9000   658.76106     -3599.3743      73.485788     -3525.8885     -6249.5642      10833.987      22.127351      22.127351      22.127351    
      9500   646.96438     -3600.1095      72.16985      -3527.9397     -5316.0578      10813.867      22.113645      22.113645      22.113645    
     10000   638.67555     -3599.9391      71.245219     -3528.6939      2374.5971      10768.03       22.082357      22.082357      22.082357    
     10500   667.242       -3605.6828      74.43185      -3531.251       1051.6798      10735.793      22.060298      22.060298      22.060298    
     11000   643.95755     -3603.5269      71.834434     -3531.6924      1293.0977      10772.949      22.085719      22.085719      22.085719    
     11500   643.95273     -3599.1211      71.833897     -3527.2872     -4594.1717      10822.483      22.119517      22.119517      22.119517    
     12000   663.68837     -3604.8405      74.035437     -3530.8051     -3517.7898      10801.725      22.105366      22.105366      22.105366    
     12500   649.33914     -3606.0455      72.434759     -3533.6108      3504.6724      10746.029      22.067307      22.067307      22.067307    
     13000   648.03494     -3598.3191      72.289273     -3526.0299     -695.02756      10804.978      22.107585      22.107585      22.107585    
     13500   658.37017     -3599.4376      73.442183     -3525.9954      7389.1854      10741.21       22.064008      22.064008      22.064008    
     14000   606.63547     -3604.6173      67.6711       -3536.9462     -1824.5023      10768.925      22.082968      22.082968      22.082968    
     14500   675.26988     -3603.5161      75.327371     -3528.1887      2250.0342      10753.114      22.072156      22.072156      22.072156    
     15000   647.64878     -3600.833       72.246196     -3528.5868      1925.7087      10798.171      22.102941      22.102941      22.102941    
     15500   619.7376      -3601.095       69.132662     -3531.9623     -2803.0914      10819.814      22.117699      22.117699      22.117699    
     16000   620.87527     -3606.1766      69.259571     -3536.917       162.16697      10778.293      22.08937       22.08937       22.08937     
     16500   628.36988     -3599.8811      70.095606     -3529.7855      593.52643      10779.843      22.090429      22.090429      22.090429    
     17000   621.66254     -3605.1938      69.347392     -3535.8464     -3520.0203      10827.366      22.122843      22.122843      22.122843    
     17500   641.45172     -3601.2525      71.554905     -3529.6976     -247.11983      10788.666      22.096454      22.096454      22.096454    
     18000   657.14284     -3603.8273      73.305273     -3530.522       1855.3336      10786.681      22.095098      22.095098      22.095098    
     18500   606.73812     -3602.352       67.682551     -3534.6695     -1336.5825      10779.579      22.090249      22.090249      22.090249    
     19000   602.85718     -3603.8784      67.249625     -3536.6288     -113.67937      10791.606      22.098461      22.098461      22.098461    
     19500   674.46102     -3605.8679      75.237142     -3530.6308      6392.7808      10739.773      22.063024      22.063024      22.063024    
     20000   659.61272     -3608.9117      73.580792     -3535.3309     -1082.3287      10778.477      22.089495      22.089495      22.089495    
     20500   635.03994     -3604.0179      70.839661     -3533.1782     -2805.8997      10812.573      22.112763      22.112763      22.112763    
     21000   643.25278     -3605.356       71.755815     -3533.6002      2574.5614      10759.853      22.076766      22.076766      22.076766    
     21500   619.43553     -3603.3465      69.098965     -3534.2475      7470.6354      10732.203      22.057839      22.057839      22.057839    
     22000   612.62316     -3602.5886      68.339036     -3534.2496     -4281.3008      10816.455      22.11541       22.11541       22.11541     
     22500   639.52554     -3601.7235      71.340037     -3530.3834     -1909.0303      10822.25       22.119358      22.119358      22.119358    
     23000   666.67391     -3605.0279      74.368478     -3530.6594      3395.2292      10760.396      22.077137      22.077137      22.077137    
     23500   632.21972     -3604.6927      70.525061     -3534.1677      215.62266      10780.841      22.09111       22.09111       22.09111     
     24000   628.77497     -3606.1941      70.140795     -3536.0533     -2714.2122      10791.775      22.098577      22.098577      22.098577    
     24500   630.0358      -3601.3026      70.281442     -3531.0211     -1759.2892      10825.466      22.121549      22.121549      22.121549    
     25000   693.31189     -3604.4629      77.339985     -3527.123       5658.2006      10761.286      22.077746      22.077746      22.077746    
     25500   680.08792     -3605.6078      75.864831     -3529.743      -1441.1065      10794.168      22.100209      22.100209      22.100209    
     26000   639.0976      -3606.4791      71.292299     -3535.1868     -698.865        10807.559      22.109345      22.109345      22.109345    
     26500   625.71067     -3605.1114      69.798967     -3535.3124     -3746.9689      10798.232      22.102983      22.102983      22.102983    
     27000   653.55806     -3601.8168      72.905385     -3528.9114      10531.976      10722.245      22.051015      22.051015      22.051015    
     27500   685.30543     -3603.342       76.446852     -3526.8951      4334.2638      10782.879      22.092502      22.092502      22.092502    
     28000   697.46494     -3600.0372      77.803264     -3522.234      -7624.9931      10868.642      22.150919      22.150919      22.150919    
     28500   645.06307     -3606.1958      71.957756     -3534.238       586.36615      10790.775      22.097894      22.097894      22.097894    
     29000   647.75536     -3603.6525      72.258085     -3531.3945      6490.0741      10757.731      22.075314      22.075314      22.075314    
     29500   653.95713     -3601.6002      72.949902     -3528.6503     -3845.5045      10821.719      22.118997      22.118997      22.118997    
     30000   653.04034     -3604.7197      72.847632     -3531.8721     -431.57865      10814.422      22.114024      22.114024      22.114024    
     30500   666.879       -3609.3297      74.391357     -3534.9384     -209.84486      10811.32       22.111909      22.111909      22.111909    
     31000   665.26774     -3602.7677      74.211618     -3528.5561      2080.1753      10788.874      22.096596      22.096596      22.096596    
     31500   627.0817      -3600.1318      69.951907     -3530.1799     -94.719762      10827.039      22.12262       22.12262       22.12262     
     32000   651.20282     -3603.7399      72.642654     -3531.0972      1338.2374      10798.635      22.103258      22.103258      22.103258    
     32500   670.73016     -3608.1497      74.820958     -3533.3287     -354.93248      10778.254      22.089344      22.089344      22.089344    
     33000   667.90698     -3601.9737      74.506028     -3527.4677     -3379.8931      10807.479      22.10929       22.10929       22.10929     
     33500   653.03093     -3602.6961      72.846583     -3529.8495     -668.30385      10803.936      22.106874      22.106874      22.106874    
     34000   650.93206     -3605.2598      72.612451     -3532.6474      1282.1418      10791.613      22.098465      22.098465      22.098465    
     34500   671.23471     -3610.4967      74.877242     -3535.6195     -1451.8843      10792          22.09873       22.09873       22.09873     
     35000   665.86441     -3610.7613      74.278178     -3536.4831     -1250.773       10779.516      22.090205      22.090205      22.090205    
     35500   652.91185     -3605.8655      72.833299     -3533.0322     -3918.4172      10830.45       22.124943      22.124943      22.124943    
     36000   660.75801     -3603.9994      73.70855      -3530.2908     -2701.1749      10849.158      22.137675      22.137675      22.137675    
     36500   659.91678     -3607.0185      73.61471      -3533.4038      1058.7154      10750.585      22.070425      22.070425      22.070425    
     37000   648.93244     -3604.401       72.38939      -3532.0116      1748.2588      10790.987      22.098038      22.098038      22.098038    
     37500   663.1039      -3601.3288      73.970238     -3527.3586      714.47472      10808.968      22.110305      22.110305      22.110305    
     38000   659.77179     -3605.3561      73.598536     -3531.7575      758.80798      10794.322      22.100315      22.100315      22.100315    
     38500   640.28722     -3606.7119      71.425003     -3535.2869      3089.4391      10771.136      22.08448       22.08448       22.08448     
     39000   623.85558     -3600.0214      69.592029     -3530.4294     -3765.1825      10837.501      22.129744      22.129744      22.129744    
     39500   667.75826     -3601.0016      74.489439     -3526.5122      1442.0622      10784.947      22.093914      22.093914      22.093914    
     40000   648.27545     -3606.5904      72.316102     -3534.2743     -4218.7832      10825.578      22.121625      22.121625      22.121625    
     40500   653.68654     -3605.3267      72.919718     -3532.407      -1448.7571      10814.499      22.114076      22.114076      22.114076    
     41000   643.07523     -3607.4007      71.73601      -3535.6647     -2160.6682      10818.005      22.116466      22.116466      22.116466    
     41500   629.30565     -3604.6586      70.199992     -3534.4586      1632.9299      10772.326      22.085293      22.085293      22.085293    
     42000   667.00831     -3603.0204      74.405781     -3528.6146     -219.90966      10789.439      22.096981      22.096981      22.096981    
     42500   622.69677     -3601.8536      69.462762     -3532.3908     -1848.3432      10819.07       22.117191      22.117191      22.117191    
     43000   631.96976     -3606.1959      70.497178     -3535.6987     -5063.6286      10824.689      22.121019      22.121019      22.121019    
     43500   651.49272     -3604.6609      72.674993     -3531.986      -10297.767      10880.016      22.158644      22.158644      22.158644    
     44000   671.9706      -3610.5552      74.959332     -3535.5959      1422.0261      10776.591      22.088207      22.088207      22.088207    
     44500   641.67212     -3607.9448      71.579491     -3536.3654     -1758.1606      10806.146      22.108381      22.108381      22.108381    
     45000   643.04401     -3611.1485      71.732527     -3539.4159      1236.3239      10770.128      22.083791      22.083791      22.083791    
     45500   660.14364     -3613.0881      73.640017     -3539.4481      4028.7965      10735.616      22.060177      22.060177      22.060177    
     46000   678.384       -3609.5689      75.674757     -3533.8941     -1748.2731      10804.105      22.106989      22.106989      22.106989    
     46500   636.9131      -3608.0354      71.048615     -3536.9867     -1863.0805      10797.639      22.102578      22.102578      22.102578    
     47000   611.91626     -3610.0631      68.260179     -3541.8029     -3135.6022      10781.348      22.091457      22.091457      22.091457    
     47500   642.51878     -3608.6416      71.673937     -3536.9677     -1540.633       10797.098      22.102209      22.102209      22.102209    
     48000   646.91569     -3609.4239      72.164419     -3537.2595      2533.7562      10746.683      22.067755      22.067755      22.067755    
     48500   620.3799      -3610.5284      69.204312     -3541.3241      3734.3244      10751.063      22.070752      22.070752      22.070752    
     49000   658.21825     -3608.2764      73.425236     -3534.8511     -3093.2714      10800.487      22.104521      22.104521      22.104521    
     49500   679.88326     -3610.2399      75.842001     -3534.3979     -154.68352      10768.906      22.082955      22.082955      22.082955    
     50000   636.56555     -3610.0073      71.009845     -3538.9975     -1534.7048      10807.351      22.109203      22.109203      22.109203    
Loop time of 1443.78 on 8 procs for 50000 steps with 864 atoms

Performance: 2.992 ns/day, 8.021 hours/ns, 34.631 timesteps/s, 29.922 katom-step/s
94.7% CPU use with 1 MPI tasks x 8 OpenMP threads

MPI task timing breakdown:
Section |  min time  |  avg time  |  max time  |%varavg| %total
---------------------------------------------------------------
Pair    | 1362.8     | 1362.8     | 1362.8     |   0.0 | 94.39
Neigh   | 0.02513    | 0.02513    | 0.02513    |   0.0 |  0.00
Comm    | 1.3828     | 1.3828     | 1.3828     |   0.0 |  0.10
Output  | 0.011014   | 0.011014   | 0.011014   |   0.0 |  0.00
Modify  | 79.311     | 79.311     | 79.311     |   0.0 |  5.49
Other   |            | 0.2286     |            |       |  0.02

Nlocal:            864 ave         864 max         864 min
Histogram: 1 0 0 0 0 0 0 0 0 0
Nghost:           3700 ave        3700 max        3700 min
Histogram: 1 0 0 0 0 0 0 0 0 0
Neighs:          73201 ave       73201 max       73201 min
Histogram: 1 0 0 0 0 0 0 0 0 0
FullNghs:       146402 ave      146402 max      146402 min
Histogram: 1 0 0 0 0 0 0 0 0 0

Total # of neighbors = 146402
Ave neighs/atom = 169.44676
Neighbor list builds = 11
Dangerous builds = 0

=== FINAL RESULTS: FCC at 650 K ===
Atoms: 864 | PE/atom: -4.17740970585477 eV/atom
WARNING: Detected non-ASCII characters in input. Will try to continue by replacing with ASCII equivalents where known. (src/input.cpp:479)
Volume: 10807.3506797967 …³ | Area: 488.816843787561 ²
==========================================
FCC 650 864 -4.17740970585477 10807.3506797967 22.1092026945243 22.1092026945243 22.1092026945243 488.816843787561
Simulation complete!
Total wall time: 0:53:29
