LAMMPS (10 Sep 2025)
  using 8 OpenMP thread(s) per MPI task
Loaded 1 plugins from C:\Users\kumar\AppData\Local\LAMMPS 64-bit 10Sep2025\plugins
using multi-threaded neighbor list subroutines
Reading data file ...
  orthogonal box = (0 0 0) to (22.584 22.584 22.584)
  1 by 1 by 1 MPI processor grid
  reading atoms ...
  864 atoms
  read_data CPU = 0.016 seconds
=== STAGE 1: Energy Minimization ===
Switching to 'neigh_modify every 1 delay 0 check yes' setting during minimization
No /omp style for force computation currently active
Neighbor list info ...
  update: every = 1 steps, delay = 0 steps, check = yes
  max neighbors/atom: 4000, page size: 100000
  master list distance cutoff = 8
  ghost atom cutoff = 8
  binsize = 4, bins = 6 6 6
  2 neighbor lists, perpetual/occasional/extra = 2 0 0
  (1) pair meam, perpetual
      attributes: full, newton on, omp
      pair build: full/bin/atomonly/omp
      stencil: full/bin/3d
      bin: standard
  (2) pair meam, perpetual, half/full from (1)
      attributes: half, newton on, omp
      pair build: halffull/newton/omp
      stencil: none
      bin: none
Setting up cg style minimization ...
  Unit style    : metal
  Current step  : 0
Per MPI rank memory allocation (min/avg/max) = 21.26 | 21.26 | 21.26 Mbytes
   Step          Temp          PotEng         KinEng         TotEng         Press          Volume           Lx             Ly             Lz      
         0   0             -3487.2912      0             -3487.2912     -82972.956      11518.677      22.584         22.584         22.584       
        24   0             -3623.5006      0             -3623.5006     -91615.711      11518.677      22.584         22.584         22.584       
Loop time of 0.896563 on 8 procs for 24 steps with 864 atoms

99.3% CPU use with 1 MPI tasks x 8 OpenMP threads

Minimization stats:
  Stopping criterion = energy tolerance
  Energy initial, next-to-last, final = 
     -3487.29119048056  -3623.49988513552  -3623.50063074984
  Force two-norm initial, final = 82.449686 8.4478772
  Force max component initial, final = 6.5613616 3.5254621
  Final line search alpha, max atom move = 0.10811427 0.38115278
  Iterations, force evaluations = 24 55

MPI task timing breakdown:
Section |  min time  |  avg time  |  max time  |%varavg| %total
---------------------------------------------------------------
Pair    | 0.88598    | 0.88598    | 0.88598    |   0.0 | 98.82
Neigh   | 0          | 0          | 0          |   0.0 |  0.00
Comm    | 0.000896   | 0.000896   | 0.000896   |   0.0 |  0.10
Output  | 0          | 0          | 0          |   0.0 |  0.00
Modify  | 0.008723   | 0.008723   | 0.008723   |   0.0 |  0.97
Other   |            | 0.000968   |            |       |  0.11

Nlocal:            864 ave         864 max         864 min
Histogram: 1 0 0 0 0 0 0 0 0 0
Nghost:           3767 ave        3767 max        3767 min
Histogram: 1 0 0 0 0 0 0 0 0 0
Neighs:          76032 ave       76032 max       76032 min
Histogram: 1 0 0 0 0 0 0 0 0 0
FullNghs:       152064 ave      152064 max      152064 min
Histogram: 1 0 0 0 0 0 0 0 0 0

Total # of neighbors = 152064
Ave neighs/atom = 176
Neighbor list builds = 0
Dangerous builds = 0
Minimized PE/atom: -4.19386647077528 eV/atom
=== STAGE 2: NPT Equilibration at 400 K ===
No /omp style for force computation currently active
Setting up Verlet run ...
  Unit style    : metal
  Current step  : 0
  Time step     : 0.002
Per MPI rank memory allocation (min/avg/max) = 20.14 | 20.14 | 20.14 Mbytes
   Step          Temp          PotEng         KinEng         TotEng         Press          Volume           Lx             Ly             Lz      
         0   400           -3623.5006      44.620602     -3578.88       -87478.078      11518.677      22.584         22.584         22.584       
       500   413.6121      -3618.7275      46.139052     -3572.5885     -1794.2328      10589.102      21.959361      21.959361      21.959361    
      1000   389.09425     -3622.2239      43.404049     -3578.8198     -614.76008      10547.553      21.930603      21.930603      21.930603    
      1500   398.32607     -3622.6949      44.433873     -3578.261       2903.9349      10516.949      21.909372      21.909372      21.909372    
      2000   411.60196     -3621.4532      45.914818     -3575.5384      2188.9328      10545.204      21.928975      21.928975      21.928975    
      2500   411.33026     -3619.7835      45.884509     -3573.8989      1690.7454      10551.567      21.933385      21.933385      21.933385    
      3000   400.28064     -3620.1192      44.651908     -3575.4673     -599.95846      10586.258      21.957395      21.957395      21.957395    
      3500   402.1159      -3619.198       44.856633     -3574.3413     -1320.7494      10584.426      21.956129      21.956129      21.956129    
      4000   398.13694     -3618.517       44.412775     -3574.1043      88.85773       10567.605      21.944492      21.944492      21.944492    
      4500   395.54467     -3619.1301      44.123603     -3575.0065      1257.9112      10558.366      21.938095      21.938095      21.938095    
      5000   396.27398     -3620.4056      44.204959     -3576.2007      1.9218008      10573.398      21.948501      21.948501      21.948501    
      5500   405.40091     -3621.111       45.223081     -3575.8879      1123.6832      10562.621      21.941041      21.941041      21.941041    
      6000   416.03689     -3617.6237      46.409541     -3571.2141      4993.9733      10538.315      21.924199      21.924199      21.924199    
      6500   402.47065     -3619.9839      44.896207     -3575.0877      1353.7436      10554.524      21.935433      21.935433      21.935433    
      7000   398.52286     -3620.263       44.455825     -3575.8072     -1460.3085      10575.778      21.950148      21.950148      21.950148    
      7500   379.67325     -3618.9394      42.353122     -3576.5862      790.70737      10559.059      21.938575      21.938575      21.938575    
      8000   404.86249     -3621.6478      45.16302      -3576.4847      2273.6841      10546.686      21.930002      21.930002      21.930002    
      8500   414.02332     -3620.181       46.184925     -3573.9961      2017.324       10558.402      21.93812       21.93812       21.93812     
      9000   402.25515     -3619.723       44.872167     -3574.8508      1123.4238      10572.646      21.94798       21.94798       21.94798     
      9500   387.11991     -3621.7155      43.183809     -3578.5317     -1126.6364      10585.946      21.95718       21.95718       21.95718     
     10000   394.64031     -3623.0667      44.022721     -3579.0439     -428.30031      10577.117      21.951074      21.951074      21.951074    
     10500   404.25821     -3621.4362      45.095612     -3576.3406     -1353.0982      10567.423      21.944366      21.944366      21.944366    
     11000   400.92534     -3620.1963      44.723825     -3575.4725      482.89463      10587.736      21.958417      21.958417      21.958417    
     11500   402.53269     -3621.9018      44.903127     -3576.9987      121.27566      10564.091      21.942059      21.942059      21.942059    
     12000   384.68057     -3622.369       42.911696     -3579.4574     -1743.593       10591.456      21.960988      21.960988      21.960988    
     12500   405.04276     -3620.336       45.18313      -3575.1528     -1388.9342      10586.118      21.957298      21.957298      21.957298    
     13000   423.80839     -3621.2121      47.276464     -3573.9356     -625.89501      10574.375      21.949177      21.949177      21.949177    
     13500   428.23701     -3619.7047      47.770483     -3571.9342      5123.8388      10520.161      21.911602      21.911602      21.911602    
     14000   409.02871     -3621.626       45.627769     -3575.9982      4165.2701      10520.219      21.911642      21.911642      21.911642    
     14500   395.82455     -3620.6597      44.154824     -3576.5049     -298.56045      10564.655      21.94245       21.94245       21.94245     
     15000   395.02764     -3619.0588      44.065928     -3574.9929     -40.181102      10592.912      21.961995      21.961995      21.961995    
     15500   411.36717     -3620.1782      45.888626     -3574.2895     -1936.4069      10599.663      21.966659      21.966659      21.966659    
     16000   414.23351     -3620.387       46.208371     -3574.1786     -3631.2829      10587.302      21.958117      21.958117      21.958117    
     16500   400.13917     -3621.3316      44.636127     -3576.6955     -3985.141       10591.224      21.960828      21.960828      21.960828    
     17000   401.45843     -3620.7976      44.783292     -3576.0143      1336.8746      10567.975      21.944747      21.944747      21.944747    
     17500   403.62496     -3620.0792      45.024972     -3575.0542      1188.7663      10569.514      21.945813      21.945813      21.945813    
     18000   401.46011     -3619.2978      44.78348      -3574.5144      2041.739       10564.297      21.942202      21.942202      21.942202    
     18500   404.45321     -3620.4191      45.117364     -3575.3018      537.23504      10546.476      21.929857      21.929857      21.929857    
     19000   383.69559     -3619.7708      42.801821     -3576.969       2007.4416      10549.991      21.932293      21.932293      21.932293    
     19500   428.09031     -3618.9413      47.754118     -3571.1871      914.66502      10568.522      21.945126      21.945126      21.945126    
     20000   401.14376     -3618.8869      44.74819      -3574.1387      195.81366      10578.604      21.952103      21.952103      21.952103    
Loop time of 528.857 on 8 procs for 20000 steps with 864 atoms

Performance: 6.535 ns/day, 3.673 hours/ns, 37.817 timesteps/s, 32.674 katom-step/s
95.4% CPU use with 1 MPI tasks x 8 OpenMP threads

MPI task timing breakdown:
Section |  min time  |  avg time  |  max time  |%varavg| %total
---------------------------------------------------------------
Pair    | 500.77     | 500.77     | 500.77     |   0.0 | 94.69
Neigh   | 0.001597   | 0.001597   | 0.001597   |   0.0 |  0.00
Comm    | 0.49178    | 0.49178    | 0.49178    |   0.0 |  0.09
Output  | 0.003942   | 0.003942   | 0.003942   |   0.0 |  0.00
Modify  | 27.501     | 27.501     | 27.501     |   0.0 |  5.20
Other   |            | 0.08654    |            |       |  0.02

Nlocal:            864 ave         864 max         864 min
Histogram: 1 0 0 0 0 0 0 0 0 0
Nghost:           3767 ave        3767 max        3767 min
Histogram: 1 0 0 0 0 0 0 0 0 0
Neighs:          76669 ave       76669 max       76669 min
Histogram: 1 0 0 0 0 0 0 0 0 0
FullNghs:       153338 ave      153338 max      153338 min
Histogram: 1 0 0 0 0 0 0 0 0 0

Total # of neighbors = 153338
Ave neighs/atom = 177.47454
Neighbor list builds = 1
Dangerous builds = 0
=== STAGE 3: NPT Production at 400 K ===
No /omp style for force computation currently active
Setting up Verlet run ...
  Unit style    : metal
  Current step  : 0
  Time step     : 0.001
Per MPI rank memory allocation (min/avg/max) = 20.15 | 20.15 | 20.15 Mbytes
   Step          Temp          PotEng         KinEng         TotEng         Press          Volume           Lx             Ly             Lz      
         0   401.14376     -3618.8869      44.74819      -3574.1387      195.81366      10578.604      21.952103      21.952103      21.952103    
       500   404.33331     -3621.9903      45.10399      -3576.8863     -2775.4051      10590.785      21.960525      21.960525      21.960525    
      1000   395.55208     -3621.4287      44.12443      -3577.3043      748.57003      10561.413      21.940205      21.940205      21.940205    
      1500   397.72981     -3618.7433      44.367359     -3574.3759      2216.179       10547.883      21.930832      21.930832      21.930832    
      2000   395.62125     -3620.8623      44.132146     -3576.7301      1073.3565      10554.976      21.935746      21.935746      21.935746    
      2500   397.47056     -3622.4466      44.338439     -3578.1082     -1328.7711      10557.921      21.937787      21.937787      21.937787    
      3000   404.33046     -3621.9855      45.103671     -3576.8819      105.44659      10579.886      21.952989      21.952989      21.952989    
      3500   398.72443     -3619.9504      44.47831      -3575.4721     -193.4507       10574.594      21.949328      21.949328      21.949328    
      4000   403.26181     -3622.2723      44.984462     -3577.2878     -1732.9566      10579.654      21.952828      21.952828      21.952828    
      4500   382.72787     -3621.872       42.69387      -3579.1782      4609.5017      10525.027      21.914979      21.914979      21.914979    
      5000   398.53962     -3621.6694      44.457695     -3577.2117     -843.55604      10578.043      21.951714      21.951714      21.951714    
      5500   406.41718     -3620.2347      45.336448     -3574.8983     -2887.5928      10596.353      21.964373      21.964373      21.964373    
      6000   410.82556     -3622.0755      45.828209     -3576.2473      2003.3765      10568.459      21.945083      21.945083      21.945083    
      6500   372.81882     -3621.9707      41.5885       -3580.3822      347.11584      10548.803      21.931469      21.931469      21.931469    
      7000   386.14641     -3620.6108      43.075214     -3577.5356     -4467.055       10601.66       21.968039      21.968039      21.968039    
      7500   396.68443     -3621.5308      44.250746     -3577.28        637.38722      10558.198      21.937978      21.937978      21.937978    
      8000   415.2518      -3620.2401      46.321963     -3573.9181      218.03773      10574.232      21.949078      21.949078      21.949078    
      8500   397.8661      -3620.446       44.382562     -3576.0634      4540.4806      10538.199      21.924118      21.924118      21.924118    
      9000   403.60994     -3621.3802      45.023296     -3576.3569      1817.7694      10546.816      21.930092      21.930092      21.930092    
      9500   398.70213     -3621.4054      44.475823     -3576.9296      1902.7648      10543.346      21.927687      21.927687      21.927687    
     10000   406.80093     -3622.288       45.379257     -3576.9088      3842.5827      10526.003      21.915657      21.915657      21.915657    
     10500   438.71458     -3620.3545      48.939272     -3571.4152      1033.648       10546.411      21.929811      21.929811      21.929811    
     11000   399.51354     -3620.406       44.566336     -3575.8396     -869.98741      10568.001      21.944765      21.944765      21.944765    
     11500   385.30866     -3620.4687      42.981761     -3577.4869     -1656.6094      10581.621      21.954189      21.954189      21.954189    
     12000   397.13188     -3621.3548      44.300659     -3577.0541      1820.9459      10526.806      21.916214      21.916214      21.916214    
     12500   384.46853     -3618.2827      42.888043     -3575.3946      1172.3263      10545.556      21.929219      21.929219      21.929219    
     13000   407.06131     -3619.2628      45.408302     -3573.8545      1841.97        10549.254      21.931782      21.931782      21.931782    
     13500   394.01384     -3620.4289      43.952837     -3576.476       2168.5398      10538.044      21.92401       21.92401       21.92401     
     14000   398.1941      -3620.1563      44.419152     -3575.7371     -5479.8416      10603.36       21.969213      21.969213      21.969213    
     14500   408.62575     -3618.4645      45.582817     -3572.8817     -2375.7749      10590.583      21.960386      21.960386      21.960386    
     15000   406.51744     -3620.2242      45.347633     -3574.8766     -1613.9954      10586.633      21.957655      21.957655      21.957655    
     15500   392.27469     -3620.1666      43.758832     -3576.4078      4146.4614      10536.245      21.922763      21.922763      21.922763    
     16000   403.79591     -3621.5665      45.044042     -3576.5225     -555.96685      10554.803      21.935626      21.935626      21.935626    
     16500   406.87188     -3619.2389      45.38717      -3573.8518     -152.39842      10569.582      21.94586       21.94586       21.94586     
     17000   378.51754     -3619.914       42.224202     -3577.6898      689.76708      10569.595      21.945869      21.945869      21.945869    
     17500   402.04778     -3620.5737      44.849034     -3575.7247      237.23302      10560.856      21.939819      21.939819      21.939819    
     18000   397.22886     -3617.6714      44.311477     -3573.3599     -8184.2451      10647.306      21.999522      21.999522      21.999522    
     18500   407.48497     -3619.1478      45.455562     -3573.6923      4372.7282      10529.799      21.918291      21.918291      21.918291    
     19000   403.71357     -3620.6845      45.034857     -3575.6496      2521.3752      10547.647      21.930668      21.930668      21.930668    
     19500   388.28521     -3620.6951      43.3138       -3577.3813     -684.70572      10557.55       21.93753       21.93753       21.93753     
     20000   387.34124     -3619.6305      43.208498     -3576.422       3508.5968      10544.56       21.928528      21.928528      21.928528    
     20500   412.70827     -3619.8361      46.038229     -3573.7979     -2482.9745      10574.989      21.949602      21.949602      21.949602    
     21000   406.48742     -3619.2288      45.344283     -3573.8845      1717.0894      10561.16       21.940029      21.940029      21.940029    
     21500   403.49356     -3620.5822      45.010314     -3575.5719     -294.21718      10564.273      21.942185      21.942185      21.942185    
     22000   401.88295     -3620.8257      44.830648     -3575.9951      2015.9652      10549.702      21.932093      21.932093      21.932093    
     22500   391.21818     -3622.3684      43.640976     -3578.7274      1427.5263      10565.458      21.943006      21.943006      21.943006    
     23000   383.87932     -3621.4028      42.822316     -3578.5805     -3253.9642      10576.33       21.950529      21.950529      21.950529    
     23500   399.8587      -3621.7012      44.604839     -3577.0964     -5488.9393      10607.865      21.972324      21.972324      21.972324    
     24000   397.85901     -3620.1056      44.381771     -3575.7239      1785.4023      10558.265      21.938025      21.938025      21.938025    
     24500   405.0625      -3620.6375      45.185331     -3575.4522      1269.2233      10562.953      21.941271      21.941271      21.941271    
     25000   410.21945     -3625.2674      45.760597     -3579.5068     -1040.0956      10564.826      21.942568      21.942568      21.942568    
     25500   399.19111     -3620.0132      44.530369     -3575.4829     -3416.4217      10580.732      21.953574      21.953574      21.953574    
     26000   401.1458      -3619.8889      44.748418     -3575.1405      750.19243      10563.905      21.94193       21.94193       21.94193     
     26500   409.43162     -3620.0099      45.672714     -3574.3372     -4969.0092      10601.637      21.968023      21.968023      21.968023    
     27000   416.49076     -3620.1477      46.460171     -3573.6875      2110.5775      10555.404      21.936043      21.936043      21.936043    
     27500   405.11398     -3621.5348      45.191074     -3576.3437     -917.70461      10574.2        21.949056      21.949056      21.949056    
     28000   389.97441     -3622.0553      43.502232     -3578.5531      889.0549       10567.744      21.944588      21.944588      21.944588    
     28500   383.55411     -3620.9161      42.786038     -3578.1301     -315.04468      10582.291      21.954653      21.954653      21.954653    
     29000   406.35529     -3621.0671      45.329545     -3575.7376      2187.5186      10553.763      21.934906      21.934906      21.934906    
     29500   412.59626     -3620.005       46.025733     -3573.9793     -2008.0322      10582.194      21.954585      21.954585      21.954585    
     30000   402.61134     -3618.9654      44.911901     -3574.0535     -506.9505       10576.147      21.950403      21.950403      21.950403    
     30500   404.55418     -3620.0404      45.128628     -3574.9117      3504.9435      10527.836      21.916929      21.916929      21.916929    
     31000   390.14666     -3620.7032      43.521448     -3577.1817      5176.9588      10521.761      21.912712      21.912712      21.912712    
     31500   406.64599     -3620.3782      45.361972     -3575.0163     -1737.5589      10569.39       21.945727      21.945727      21.945727    
     32000   408.05445     -3619.2392      45.519088     -3573.7201     -3309.0502      10594.289      21.962947      21.962947      21.962947    
     32500   403.6632      -3623.2734      45.029238     -3578.2441      2242.0305      10548.103      21.930984      21.930984      21.930984    
     33000   402.08459     -3620.6293      44.853141     -3575.7762     -876.59846      10574.483      21.949252      21.949252      21.949252    
     33500   417.75601     -3622.1056      46.601311     -3575.5043     -2574.465       10575.531      21.949977      21.949977      21.949977    
     34000   396.02177     -3619.8723      44.176825     -3575.6955     -154.07519      10564.084      21.942054      21.942054      21.942054    
     34500   388.73539     -3622.6443      43.364018     -3579.2803     -916.07801      10567.96       21.944737      21.944737      21.944737    
     35000   387.08263     -3622.782       43.17965      -3579.6024     -2809.0239      10568.545      21.945142      21.945142      21.945142    
     35500   406.33368     -3620.2504      45.327134     -3574.9233     -4431.0803      10592.921      21.962001      21.962001      21.962001    
     36000   378.95759     -3620.2834      42.27329      -3578.0101      3879.7164      10551.734      21.9335        21.9335        21.9335      
     36500   382.89786     -3620.2992      42.712833     -3577.5863     -50.997706      10578.117      21.951765      21.951765      21.951765    
     37000   402.95143     -3619.3704      44.949838     -3574.4206      2776.8798      10571.529      21.947207      21.947207      21.947207    
     37500   410.09806     -3622.5012      45.747056     -3576.7542     -333.79681      10598.729      21.966014      21.966014      21.966014    
     38000   385.04269     -3620.592       42.952092     -3577.64       -2428.3855      10586.876      21.957823      21.957823      21.957823    
     38500   390.23966     -3621.732       43.531821     -3578.2002     -2221.1568      10583.341      21.955379      21.955379      21.955379    
     39000   412.95735     -3621.6704      46.066013     -3575.6044     -3903.9885      10595.343      21.963675      21.963675      21.963675    
     39500   414.51277     -3620.014       46.239523     -3573.7745      1828.4211      10571.112      21.946919      21.946919      21.946919    
     40000   426.47313     -3619.5824      47.573719     -3572.0087     -3286.2779      10610.681      21.974268      21.974268      21.974268    
     40500   406.20345     -3619.5696      45.312606     -3574.257      -218.69396      10581.113      21.953838      21.953838      21.953838    
     41000   408.99509     -3620.9336      45.624018     -3575.3096     -163.45471      10584.194      21.955968      21.955968      21.955968    
     41500   380.44968     -3621.2159      42.439735     -3578.7762     -162.48254      10576.061      21.950343      21.950343      21.950343    
     42000   399.85621     -3622.7231      44.604562     -3578.1185      2359.6215      10554.246      21.935241      21.935241      21.935241    
     42500   394.86285     -3620.8003      44.047545     -3576.7527      628.65889      10560.94       21.939877      21.939877      21.939877    
     43000   396.39555     -3619.605       44.21852      -3575.3865     -1088.1645      10581.675      21.954226      21.954226      21.954226    
     43500   396.93121     -3619.9101      44.278274     -3575.6318     -1465.0698      10591.938      21.961322      21.961322      21.961322    
     44000   402.89687     -3621.5438      44.943753     -3576.6001     -47.349691      10571.197      21.946978      21.946978      21.946978    
     44500   386.00399     -3619.6616      43.059326     -3576.6023     -7284.5214      10621.699      21.981871      21.981871      21.981871    
     45000   410.52632     -3621.6513      45.794829     -3575.8565      1411.3653      10570.703      21.946636      21.946636      21.946636    
     45500   415.11218     -3619.5553      46.306388     -3573.2489     -1721.1318      10571.065      21.946886      21.946886      21.946886    
     46000   407.232       -3619.4573      45.427343     -3574.0299     -3191.1193      10593.51       21.962408      21.962408      21.962408    
     46500   401.10273     -3619.6881      44.743613     -3574.9445      904.68635      10584.867      21.956434      21.956434      21.956434    
     47000   408.78957     -3621.5151      45.601092     -3575.914       27.613208      10561.709      21.94041       21.94041       21.94041     
     47500   401.00158     -3621.8112      44.73233      -3577.0789      4133.0204      10541.968      21.926731      21.926731      21.926731    
     48000   401.71075     -3621.9866      44.811439     -3577.1751     -2369.665       10580.722      21.953567      21.953567      21.953567    
     48500   406.61625     -3620.7085      45.358654     -3575.3498      368.6443       10567.612      21.944496      21.944496      21.944496    
     49000   413.87164     -3617.76        46.168004     -3571.592       862.66103      10559.68       21.939005      21.939005      21.939005    
     49500   397.69439     -3621.2686      44.363408     -3576.9052      3651.6171      10536.49       21.922933      21.922933      21.922933    
     50000   395.18261     -3621.3288      44.083215     -3577.2456      2750.4327      10566.958      21.944044      21.944044      21.944044    
Loop time of 1233.03 on 8 procs for 50000 steps with 864 atoms

Performance: 3.504 ns/day, 6.850 hours/ns, 40.550 timesteps/s, 35.036 katom-step/s
96.4% CPU use with 1 MPI tasks x 8 OpenMP threads

MPI task timing breakdown:
Section |  min time  |  avg time  |  max time  |%varavg| %total
---------------------------------------------------------------
Pair    | 1171       | 1171       | 1171       |   0.0 | 94.97
Neigh   | 0          | 0          | 0          |   0.0 |  0.00
Comm    | 1.1493     | 1.1493     | 1.1493     |   0.0 |  0.09
Output  | 0.009106   | 0.009106   | 0.009106   |   0.0 |  0.00
Modify  | 60.689     | 60.689     | 60.689     |   0.0 |  4.92
Other   |            | 0.2047     |            |       |  0.02

Nlocal:            864 ave         864 max         864 min
Histogram: 1 0 0 0 0 0 0 0 0 0
Nghost:           3763 ave        3763 max        3763 min
Histogram: 1 0 0 0 0 0 0 0 0 0
Neighs:          75577 ave       75577 max       75577 min
Histogram: 1 0 0 0 0 0 0 0 0 0
FullNghs:       151154 ave      151154 max      151154 min
Histogram: 1 0 0 0 0 0 0 0 0 0

Total # of neighbors = 151154
Ave neighs/atom = 174.94676
Neighbor list builds = 0
Dangerous builds = 0

=== FINAL RESULTS: FCC at 400 K ===
Atoms: 864 | PE/atom: -4.19037156765513 eV/atom
WARNING: Detected non-ASCII characters in input. Will try to continue by replacing with ASCII equivalents where known. (src/input.cpp:479)
Volume: 10566.9582219586 …³ | Area: 481.541062768475 ²
==========================================
FCC 400 864 -4.19037156765513 10566.9582219586 21.9440439018991 21.9440439018991 21.9440439018991 481.541062768475
Simulation complete!
Total wall time: 0:29:22
