# HCP structure - OPTIMIZED (smaller supercell)
# Composition: {'Al': 0.4, 'Fe': 0.4, 'Ni': 0.2}
# Generated for Assignment 2 - MM309 (Optimized)

432 atoms
3 atom types

0.0 15.96929955 xlo xhi
0.0 27.65963818 ylo yhi
0.0 26.07775696 zlo zhi

Masses

1 26.9815  # Al
2 55.8450  # Fe
3 58.6934  # Ni

Atoms # atomic

1 2 0.00000000 0.00000000 0.00000000
2 1 0.00000000 4.60993970 0.00000000
3 2 0.00000000 9.21987939 0.00000000
4 1 0.00000000 13.82981909 0.00000000
5 2 0.00000000 18.43975878 0.00000000
6 2 0.00000000 23.04969848 0.00000000
7 1 2.66154992 0.00000000 0.00000000
8 1 2.66154992 4.60993970 0.00000000
9 1 2.66154992 9.21987939 0.00000000
10 1 2.66154992 13.82981909 0.00000000
11 2 2.66154992 18.43975878 0.00000000
12 1 2.66154992 23.04969848 0.00000000
13 3 5.32309985 0.00000000 0.00000000
14 2 5.32309985 4.60993970 0.00000000
15 2 5.32309985 9.21987939 0.00000000
16 2 5.32309985 13.82981909 0.00000000
17 2 5.32309985 18.43975878 0.00000000
18 1 5.32309985 23.04969848 0.00000000
19 2 7.98464977 0.00000000 0.00000000
20 2 7.98464977 4.60993970 0.00000000
21 2 7.98464977 9.21987939 0.00000000
22 1 7.98464977 13.82981909 0.00000000
23 2 7.98464977 18.43975878 0.00000000
24 2 7.98464977 23.04969848 0.00000000
25 1 10.64619970 0.00000000 0.00000000
26 1 10.64619970 4.60993970 0.00000000
27 1 10.64619970 9.21987939 0.00000000
28 2 10.64619970 13.82981909 0.00000000
29 1 10.64619970 18.43975878 0.00000000
30 3 10.64619970 23.04969848 0.00000000
31 2 13.30774962 0.00000000 0.00000000
32 1 13.30774962 4.60993970 0.00000000
33 1 13.30774962 9.21987939 0.00000000
34 3 13.30774962 13.82981909 0.00000000
35 2 13.30774962 18.43975878 0.00000000
36 1 13.30774962 23.04969848 0.00000000
37 2 1.33077496 2.30496985 2.17314641
38 2 1.33077496 6.91490954 2.17314641
39 1 1.33077496 11.52484924 2.17314641
40 2 1.33077496 16.13478894 2.17314641
41 2 1.33077496 20.74472863 2.17314641
42 1 1.33077496 25.35466833 2.17314641
43 1 3.99232489 2.30496985 2.17314641
44 2 3.99232489 6.91490954 2.17314641
45 2 3.99232489 11.52484924 2.17314641
46 1 3.99232489 16.13478894 2.17314641
47 2 3.99232489 20.74472863 2.17314641
48 3 3.99232489 25.35466833 2.17314641
49 3 6.65387481 2.30496985 2.17314641
50 1 6.65387481 6.91490954 2.17314641
51 1 6.65387481 11.52484924 2.17314641
52 1 6.65387481 16.13478894 2.17314641
53 2 6.65387481 20.74472863 2.17314641
54 1 6.65387481 25.35466833 2.17314641
55 2 9.31542474 2.30496985 2.17314641
56 2 9.31542474 6.91490954 2.17314641
57 1 9.31542474 11.52484924 2.17314641
58 1 9.31542474 16.13478894 2.17314641
59 2 9.31542474 20.74472863 2.17314641
60 2 9.31542474 25.35466833 2.17314641
61 2 11.97697466 2.30496985 2.17314641
62 2 11.97697466 6.91490954 2.17314641
63 3 11.97697466 11.52484924 2.17314641
64 2 11.97697466 16.13478894 2.17314641
65 1 11.97697466 20.74472863 2.17314641
66 3 11.97697466 25.35466833 2.17314641
67 1 14.63852458 2.30496985 2.17314641
68 2 14.63852458 6.91490954 2.17314641
69 1 14.63852458 11.52484924 2.17314641
70 1 14.63852458 16.13478894 2.17314641
71 1 14.63852458 20.74472863 2.17314641
72 1 14.63852458 25.35466833 2.17314641
73 2 0.00000000 0.00000000 4.34629283
74 2 0.00000000 4.60993970 4.34629283
75 2 0.00000000 9.21987939 4.34629283
76 2 0.00000000 13.82981909 4.34629283
77 3 0.00000000 18.43975878 4.34629283
78 3 0.00000000 23.04969848 4.34629283
79 3 2.66154992 0.00000000 4.34629283
80 3 2.66154992 4.60993970 4.34629283
81 1 2.66154992 9.21987939 4.34629283
82 3 2.66154992 13.82981909 4.34629283
83 1 2.66154992 18.43975878 4.34629283
84 2 2.66154992 23.04969848 4.34629283
85 1 5.32309985 0.00000000 4.34629283
86 2 5.32309985 4.60993970 4.34629283
87 1 5.32309985 9.21987939 4.34629283
88 1 5.32309985 13.82981909 4.34629283
89 3 5.32309985 18.43975878 4.34629283
90 3 5.32309985 23.04969848 4.34629283
91 3 7.98464977 0.00000000 4.34629283
92 2 7.98464977 4.60993970 4.34629283
93 3 7.98464977 9.21987939 4.34629283
94 1 7.98464977 13.82981909 4.34629283
95 2 7.98464977 18.43975878 4.34629283
96 2 7.98464977 23.04969848 4.34629283
97 1 10.64619970 0.00000000 4.34629283
98 3 10.64619970 4.60993970 4.34629283
99 1 10.64619970 9.21987939 4.34629283
100 1 10.64619970 13.82981909 4.34629283
101 1 10.64619970 18.43975878 4.34629283
102 2 10.64619970 23.04969848 4.34629283
103 2 13.30774962 0.00000000 4.34629283
104 1 13.30774962 4.60993970 4.34629283
105 1 13.30774962 9.21987939 4.34629283
106 2 13.30774962 13.82981909 4.34629283
107 2 13.30774962 18.43975878 4.34629283
108 1 13.30774962 23.04969848 4.34629283
109 1 1.33077496 2.30496985 6.51943924
110 1 1.33077496 6.91490954 6.51943924
111 3 1.33077496 11.52484924 6.51943924
112 1 1.33077496 16.13478894 6.51943924
113 2 1.33077496 20.74472863 6.51943924
114 3 1.33077496 25.35466833 6.51943924
115 3 3.99232489 2.30496985 6.51943924
116 2 3.99232489 6.91490954 6.51943924
117 1 3.99232489 11.52484924 6.51943924
118 3 3.99232489 16.13478894 6.51943924
119 1 3.99232489 20.74472863 6.51943924
120 1 3.99232489 25.35466833 6.51943924
121 2 6.65387481 2.30496985 6.51943924
122 3 6.65387481 6.91490954 6.51943924
123 1 6.65387481 11.52484924 6.51943924
124 2 6.65387481 16.13478894 6.51943924
125 2 6.65387481 20.74472863 6.51943924
126 1 6.65387481 25.35466833 6.51943924
127 1 9.31542474 2.30496985 6.51943924
128 1 9.31542474 6.91490954 6.51943924
129 1 9.31542474 11.52484924 6.51943924
130 1 9.31542474 16.13478894 6.51943924
131 1 9.31542474 20.74472863 6.51943924
132 1 9.31542474 25.35466833 6.51943924
133 2 11.97697466 2.30496985 6.51943924
134 2 11.97697466 6.91490954 6.51943924
135 3 11.97697466 11.52484924 6.51943924
136 2 11.97697466 16.13478894 6.51943924
137 2 11.97697466 20.74472863 6.51943924
138 2 11.97697466 25.35466833 6.51943924
139 2 14.63852458 2.30496985 6.51943924
140 3 14.63852458 6.91490954 6.51943924
141 1 14.63852458 11.52484924 6.51943924
142 2 14.63852458 16.13478894 6.51943924
143 1 14.63852458 20.74472863 6.51943924
144 2 14.63852458 25.35466833 6.51943924
145 1 0.00000000 0.00000000 8.69258565
146 1 0.00000000 4.60993970 8.69258565
147 1 0.00000000 9.21987939 8.69258565
148 2 0.00000000 13.82981909 8.69258565
149 3 0.00000000 18.43975878 8.69258565
150 2 0.00000000 23.04969848 8.69258565
151 2 2.66154992 0.00000000 8.69258565
152 3 2.66154992 4.60993970 8.69258565
153 1 2.66154992 9.21987939 8.69258565
154 1 2.66154992 13.82981909 8.69258565
155 1 2.66154992 18.43975878 8.69258565
156 2 2.66154992 23.04969848 8.69258565
157 1 5.32309985 0.00000000 8.69258565
158 1 5.32309985 4.60993970 8.69258565
159 3 5.32309985 9.21987939 8.69258565
160 2 5.32309985 13.82981909 8.69258565
161 2 5.32309985 18.43975878 8.69258565
162 1 5.32309985 23.04969848 8.69258565
163 2 7.98464977 0.00000000 8.69258565
164 1 7.98464977 4.60993970 8.69258565
165 2 7.98464977 9.21987939 8.69258565
166 2 7.98464977 13.82981909 8.69258565
167 1 7.98464977 18.43975878 8.69258565
168 1 7.98464977 23.04969848 8.69258565
169 2 10.64619970 0.00000000 8.69258565
170 1 10.64619970 4.60993970 8.69258565
171 2 10.64619970 9.21987939 8.69258565
172 3 10.64619970 13.82981909 8.69258565
173 2 10.64619970 18.43975878 8.69258565
174 2 10.64619970 23.04969848 8.69258565
175 2 13.30774962 0.00000000 8.69258565
176 1 13.30774962 4.60993970 8.69258565
177 1 13.30774962 9.21987939 8.69258565
178 3 13.30774962 13.82981909 8.69258565
179 2 13.30774962 18.43975878 8.69258565
180 2 13.30774962 23.04969848 8.69258565
181 2 1.33077496 2.30496985 10.86573207
182 3 1.33077496 6.91490954 10.86573207
183 1 1.33077496 11.52484924 10.86573207
184 1 1.33077496 16.13478894 10.86573207
185 1 1.33077496 20.74472863 10.86573207
186 2 1.33077496 25.35466833 10.86573207
187 1 3.99232489 2.30496985 10.86573207
188 1 3.99232489 6.91490954 10.86573207
189 3 3.99232489 11.52484924 10.86573207
190 3 3.99232489 16.13478894 10.86573207
191 3 3.99232489 20.74472863 10.86573207
192 2 3.99232489 25.35466833 10.86573207
193 2 6.65387481 2.30496985 10.86573207
194 2 6.65387481 6.91490954 10.86573207
195 1 6.65387481 11.52484924 10.86573207
196 3 6.65387481 16.13478894 10.86573207
197 1 6.65387481 20.74472863 10.86573207
198 2 6.65387481 25.35466833 10.86573207
199 1 9.31542474 2.30496985 10.86573207
200 3 9.31542474 6.91490954 10.86573207
201 2 9.31542474 11.52484924 10.86573207
202 2 9.31542474 16.13478894 10.86573207
203 2 9.31542474 20.74472863 10.86573207
204 3 9.31542474 25.35466833 10.86573207
205 1 11.97697466 2.30496985 10.86573207
206 3 11.97697466 6.91490954 10.86573207
207 1 11.97697466 11.52484924 10.86573207
208 2 11.97697466 16.13478894 10.86573207
209 2 11.97697466 20.74472863 10.86573207
210 2 11.97697466 25.35466833 10.86573207
211 1 14.63852458 2.30496985 10.86573207
212 2 14.63852458 6.91490954 10.86573207
213 2 14.63852458 11.52484924 10.86573207
214 2 14.63852458 16.13478894 10.86573207
215 1 14.63852458 20.74472863 10.86573207
216 1 14.63852458 25.35466833 10.86573207
217 2 0.00000000 0.00000000 13.03887848
218 2 0.00000000 4.60993970 13.03887848
219 2 0.00000000 9.21987939 13.03887848
220 2 0.00000000 13.82981909 13.03887848
221 3 0.00000000 18.43975878 13.03887848
222 2 0.00000000 23.04969848 13.03887848
223 2 2.66154992 0.00000000 13.03887848
224 1 2.66154992 4.60993970 13.03887848
225 1 2.66154992 9.21987939 13.03887848
226 1 2.66154992 13.82981909 13.03887848
227 3 2.66154992 18.43975878 13.03887848
228 2 2.66154992 23.04969848 13.03887848
229 2 5.32309985 0.00000000 13.03887848
230 1 5.32309985 4.60993970 13.03887848
231 1 5.32309985 9.21987939 13.03887848
232 2 5.32309985 13.82981909 13.03887848
233 3 5.32309985 18.43975878 13.03887848
234 2 5.32309985 23.04969848 13.03887848
235 1 7.98464977 0.00000000 13.03887848
236 1 7.98464977 4.60993970 13.03887848
237 1 7.98464977 9.21987939 13.03887848
238 1 7.98464977 13.82981909 13.03887848
239 3 7.98464977 18.43975878 13.03887848
240 1 7.98464977 23.04969848 13.03887848
241 2 10.64619970 0.00000000 13.03887848
242 1 10.64619970 4.60993970 13.03887848
243 1 10.64619970 9.21987939 13.03887848
244 1 10.64619970 13.82981909 13.03887848
245 2 10.64619970 18.43975878 13.03887848
246 3 10.64619970 23.04969848 13.03887848
247 2 13.30774962 0.00000000 13.03887848
248 2 13.30774962 4.60993970 13.03887848
249 1 13.30774962 9.21987939 13.03887848
250 3 13.30774962 13.82981909 13.03887848
251 2 13.30774962 18.43975878 13.03887848
252 3 13.30774962 23.04969848 13.03887848
253 2 1.33077496 2.30496985 15.21202489
254 2 1.33077496 6.91490954 15.21202489
255 3 1.33077496 11.52484924 15.21202489
256 1 1.33077496 16.13478894 15.21202489
257 3 1.33077496 20.74472863 15.21202489
258 3 1.33077496 25.35466833 15.21202489
259 1 3.99232489 2.30496985 15.21202489
260 2 3.99232489 6.91490954 15.21202489
261 1 3.99232489 11.52484924 15.21202489
262 2 3.99232489 16.13478894 15.21202489
263 1 3.99232489 20.74472863 15.21202489
264 2 3.99232489 25.35466833 15.21202489
265 1 6.65387481 2.30496985 15.21202489
266 2 6.65387481 6.91490954 15.21202489
267 1 6.65387481 11.52484924 15.21202489
268 2 6.65387481 16.13478894 15.21202489
269 3 6.65387481 20.74472863 15.21202489
270 1 6.65387481 25.35466833 15.21202489
271 1 9.31542474 2.30496985 15.21202489
272 2 9.31542474 6.91490954 15.21202489
273 2 9.31542474 11.52484924 15.21202489
274 1 9.31542474 16.13478894 15.21202489
275 2 9.31542474 20.74472863 15.21202489
276 2 9.31542474 25.35466833 15.21202489
277 1 11.97697466 2.30496985 15.21202489
278 2 11.97697466 6.91490954 15.21202489
279 1 11.97697466 11.52484924 15.21202489
280 2 11.97697466 16.13478894 15.21202489
281 1 11.97697466 20.74472863 15.21202489
282 1 11.97697466 25.35466833 15.21202489
283 3 14.63852458 2.30496985 15.21202489
284 2 14.63852458 6.91490954 15.21202489
285 3 14.63852458 11.52484924 15.21202489
286 1 14.63852458 16.13478894 15.21202489
287 3 14.63852458 20.74472863 15.21202489
288 3 14.63852458 25.35466833 15.21202489
289 2 0.00000000 0.00000000 17.38517131
290 1 0.00000000 4.60993970 17.38517131
291 2 0.00000000 9.21987939 17.38517131
292 1 0.00000000 13.82981909 17.38517131
293 1 0.00000000 18.43975878 17.38517131
294 3 0.00000000 23.04969848 17.38517131
295 2 2.66154992 0.00000000 17.38517131
296 1 2.66154992 4.60993970 17.38517131
297 1 2.66154992 9.21987939 17.38517131
298 2 2.66154992 13.82981909 17.38517131
299 2 2.66154992 18.43975878 17.38517131
300 2 2.66154992 23.04969848 17.38517131
301 3 5.32309985 0.00000000 17.38517131
302 1 5.32309985 4.60993970 17.38517131
303 2 5.32309985 9.21987939 17.38517131
304 1 5.32309985 13.82981909 17.38517131
305 1 5.32309985 18.43975878 17.38517131
306 1 5.32309985 23.04969848 17.38517131
307 2 7.98464977 0.00000000 17.38517131
308 3 7.98464977 4.60993970 17.38517131
309 1 7.98464977 9.21987939 17.38517131
310 1 7.98464977 13.82981909 17.38517131
311 2 7.98464977 18.43975878 17.38517131
312 1 7.98464977 23.04969848 17.38517131
313 1 10.64619970 0.00000000 17.38517131
314 2 10.64619970 4.60993970 17.38517131
315 1 10.64619970 9.21987939 17.38517131
316 2 10.64619970 13.82981909 17.38517131
317 3 10.64619970 18.43975878 17.38517131
318 2 10.64619970 23.04969848 17.38517131
319 2 13.30774962 0.00000000 17.38517131
320 1 13.30774962 4.60993970 17.38517131
321 1 13.30774962 9.21987939 17.38517131
322 3 13.30774962 13.82981909 17.38517131
323 3 13.30774962 18.43975878 17.38517131
324 3 13.30774962 23.04969848 17.38517131
325 2 1.33077496 2.30496985 19.55831772
326 1 1.33077496 6.91490954 19.55831772
327 3 1.33077496 11.52484924 19.55831772
328 2 1.33077496 16.13478894 19.55831772
329 2 1.33077496 20.74472863 19.55831772
330 1 1.33077496 25.35466833 19.55831772
331 1 3.99232489 2.30496985 19.55831772
332 1 3.99232489 6.91490954 19.55831772
333 2 3.99232489 11.52484924 19.55831772
334 3 3.99232489 16.13478894 19.55831772
335 1 3.99232489 20.74472863 19.55831772
336 2 3.99232489 25.35466833 19.55831772
337 2 6.65387481 2.30496985 19.55831772
338 1 6.65387481 6.91490954 19.55831772
339 2 6.65387481 11.52484924 19.55831772
340 2 6.65387481 16.13478894 19.55831772
341 2 6.65387481 20.74472863 19.55831772
342 1 6.65387481 25.35466833 19.55831772
343 3 9.31542474 2.30496985 19.55831772
344 2 9.31542474 6.91490954 19.55831772
345 2 9.31542474 11.52484924 19.55831772
346 1 9.31542474 16.13478894 19.55831772
347 2 9.31542474 20.74472863 19.55831772
348 1 9.31542474 25.35466833 19.55831772
349 3 11.97697466 2.30496985 19.55831772
350 3 11.97697466 6.91490954 19.55831772
351 1 11.97697466 11.52484924 19.55831772
352 2 11.97697466 16.13478894 19.55831772
353 1 11.97697466 20.74472863 19.55831772
354 1 11.97697466 25.35466833 19.55831772
355 2 14.63852458 2.30496985 19.55831772
356 3 14.63852458 6.91490954 19.55831772
357 2 14.63852458 11.52484924 19.55831772
358 1 14.63852458 16.13478894 19.55831772
359 1 14.63852458 20.74472863 19.55831772
360 2 14.63852458 25.35466833 19.55831772
361 2 0.00000000 0.00000000 21.73146413
362 1 0.00000000 4.60993970 21.73146413
363 1 0.00000000 9.21987939 21.73146413
364 1 0.00000000 13.82981909 21.73146413
365 3 0.00000000 18.43975878 21.73146413
366 1 0.00000000 23.04969848 21.73146413
367 3 2.66154992 0.00000000 21.73146413
368 1 2.66154992 4.60993970 21.73146413
369 3 2.66154992 9.21987939 21.73146413
370 2 2.66154992 13.82981909 21.73146413
371 2 2.66154992 18.43975878 21.73146413
372 3 2.66154992 23.04969848 21.73146413
373 2 5.32309985 0.00000000 21.73146413
374 1 5.32309985 4.60993970 21.73146413
375 1 5.32309985 9.21987939 21.73146413
376 1 5.32309985 13.82981909 21.73146413
377 2 5.32309985 18.43975878 21.73146413
378 3 5.32309985 23.04969848 21.73146413
379 3 7.98464977 0.00000000 21.73146413
380 1 7.98464977 4.60993970 21.73146413
381 3 7.98464977 9.21987939 21.73146413
382 1 7.98464977 13.82981909 21.73146413
383 1 7.98464977 18.43975878 21.73146413
384 1 7.98464977 23.04969848 21.73146413
385 2 10.64619970 0.00000000 21.73146413
386 3 10.64619970 4.60993970 21.73146413
387 3 10.64619970 9.21987939 21.73146413
388 1 10.64619970 13.82981909 21.73146413
389 2 10.64619970 18.43975878 21.73146413
390 3 10.64619970 23.04969848 21.73146413
391 3 13.30774962 0.00000000 21.73146413
392 3 13.30774962 4.60993970 21.73146413
393 1 13.30774962 9.21987939 21.73146413
394 3 13.30774962 13.82981909 21.73146413
395 3 13.30774962 18.43975878 21.73146413
396 2 13.30774962 23.04969848 21.73146413
397 2 1.33077496 2.30496985 23.90461055
398 1 1.33077496 6.91490954 23.90461055
399 3 1.33077496 11.52484924 23.90461055
400 3 1.33077496 16.13478894 23.90461055
401 3 1.33077496 20.74472863 23.90461055
402 1 1.33077496 25.35466833 23.90461055
403 1 3.99232489 2.30496985 23.90461055
404 1 3.99232489 6.91490954 23.90461055
405 2 3.99232489 11.52484924 23.90461055
406 2 3.99232489 16.13478894 23.90461055
407 1 3.99232489 20.74472863 23.90461055
408 2 3.99232489 25.35466833 23.90461055
409 3 6.65387481 2.30496985 23.90461055
410 2 6.65387481 6.91490954 23.90461055
411 1 6.65387481 11.52484924 23.90461055
412 2 6.65387481 16.13478894 23.90461055
413 2 6.65387481 20.74472863 23.90461055
414 1 6.65387481 25.35466833 23.90461055
415 1 9.31542474 2.30496985 23.90461055
416 2 9.31542474 6.91490954 23.90461055
417 2 9.31542474 11.52484924 23.90461055
418 1 9.31542474 16.13478894 23.90461055
419 3 9.31542474 20.74472863 23.90461055
420 2 9.31542474 25.35466833 23.90461055
421 1 11.97697466 2.30496985 23.90461055
422 2 11.97697466 6.91490954 23.90461055
423 2 11.97697466 11.52484924 23.90461055
424 2 11.97697466 16.13478894 23.90461055
425 3 11.97697466 20.74472863 23.90461055
426 3 11.97697466 25.35466833 23.90461055
427 2 14.63852458 2.30496985 23.90461055
428 1 14.63852458 6.91490954 23.90461055
429 2 14.63852458 11.52484924 23.90461055
430 2 14.63852458 16.13478894 23.90461055
431 1 14.63852458 20.74472863 23.90461055
432 2 14.63852458 25.35466833 23.90461055
