# DHCP structure - OPTIMIZED (smaller supercell)
# Composition: {'Al': 0.4, 'Fe': 0.4, 'Ni': 0.2}
# Generated for Assignment 2 - MM309 (Optimized)

432 atoms
3 atom types

0.0 15.96929955 xlo xhi
0.0 27.65963818 ylo yhi
0.0 26.07775696 zlo zhi

Masses

1 26.9815  # Al
2 55.8450  # Fe
3 58.6934  # Ni

Atoms # atomic

1 2 0.00000000 0.00000000 0.00000000
2 1 0.00000000 4.60993970 0.00000000
3 1 0.00000000 9.21987939 0.00000000
4 2 0.00000000 13.82981909 0.00000000
5 1 0.00000000 18.43975878 0.00000000
6 1 0.00000000 23.04969848 0.00000000
7 2 2.66154992 0.00000000 0.00000000
8 2 2.66154992 4.60993970 0.00000000
9 2 2.66154992 9.21987939 0.00000000
10 3 2.66154992 13.82981909 0.00000000
11 1 2.66154992 18.43975878 0.00000000
12 2 2.66154992 23.04969848 0.00000000
13 2 5.32309985 0.00000000 0.00000000
14 2 5.32309985 4.60993970 0.00000000
15 1 5.32309985 9.21987939 0.00000000
16 2 5.32309985 13.82981909 0.00000000
17 1 5.32309985 18.43975878 0.00000000
18 2 5.32309985 23.04969848 0.00000000
19 3 7.98464977 0.00000000 0.00000000
20 2 7.98464977 4.60993970 0.00000000
21 2 7.98464977 9.21987939 0.00000000
22 1 7.98464977 13.82981909 0.00000000
23 2 7.98464977 18.43975878 0.00000000
24 2 7.98464977 23.04969848 0.00000000
25 2 10.64619970 0.00000000 0.00000000
26 3 10.64619970 4.60993970 0.00000000
27 1 10.64619970 9.21987939 0.00000000
28 2 10.64619970 13.82981909 0.00000000
29 3 10.64619970 18.43975878 0.00000000
30 1 10.64619970 23.04969848 0.00000000
31 1 13.30774962 0.00000000 0.00000000
32 3 13.30774962 4.60993970 0.00000000
33 3 13.30774962 9.21987939 0.00000000
34 2 13.30774962 13.82981909 0.00000000
35 1 13.30774962 18.43975878 0.00000000
36 2 13.30774962 23.04969848 0.00000000
37 1 1.33077496 2.30496985 2.17314641
38 1 1.33077496 6.91490954 2.17314641
39 1 1.33077496 11.52484924 2.17314641
40 1 1.33077496 16.13478894 2.17314641
41 2 1.33077496 20.74472863 2.17314641
42 2 1.33077496 25.35466833 2.17314641
43 2 3.99232489 2.30496985 2.17314641
44 1 3.99232489 6.91490954 2.17314641
45 1 3.99232489 11.52484924 2.17314641
46 1 3.99232489 16.13478894 2.17314641
47 2 3.99232489 20.74472863 2.17314641
48 1 3.99232489 25.35466833 2.17314641
49 2 6.65387481 2.30496985 2.17314641
50 1 6.65387481 6.91490954 2.17314641
51 2 6.65387481 11.52484924 2.17314641
52 1 6.65387481 16.13478894 2.17314641
53 2 6.65387481 20.74472863 2.17314641
54 2 6.65387481 25.35466833 2.17314641
55 2 9.31542474 2.30496985 2.17314641
56 3 9.31542474 6.91490954 2.17314641
57 1 9.31542474 11.52484924 2.17314641
58 2 9.31542474 16.13478894 2.17314641
59 2 9.31542474 20.74472863 2.17314641
60 1 9.31542474 25.35466833 2.17314641
61 1 11.97697466 2.30496985 2.17314641
62 1 11.97697466 6.91490954 2.17314641
63 3 11.97697466 11.52484924 2.17314641
64 2 11.97697466 16.13478894 2.17314641
65 3 11.97697466 20.74472863 2.17314641
66 3 11.97697466 25.35466833 2.17314641
67 2 14.63852458 2.30496985 2.17314641
68 3 14.63852458 6.91490954 2.17314641
69 1 14.63852458 11.52484924 2.17314641
70 1 14.63852458 16.13478894 2.17314641
71 2 14.63852458 20.74472863 2.17314641
72 1 14.63852458 25.35466833 2.17314641
73 2 0.00000000 0.00000000 4.34629283
74 2 0.00000000 4.60993970 4.34629283
75 1 0.00000000 9.21987939 4.34629283
76 1 0.00000000 13.82981909 4.34629283
77 2 0.00000000 18.43975878 4.34629283
78 2 0.00000000 23.04969848 4.34629283
79 1 2.66154992 0.00000000 4.34629283
80 2 2.66154992 4.60993970 4.34629283
81 2 2.66154992 9.21987939 4.34629283
82 2 2.66154992 13.82981909 4.34629283
83 2 2.66154992 18.43975878 4.34629283
84 2 2.66154992 23.04969848 4.34629283
85 1 5.32309985 0.00000000 4.34629283
86 1 5.32309985 4.60993970 4.34629283
87 1 5.32309985 9.21987939 4.34629283
88 1 5.32309985 13.82981909 4.34629283
89 2 5.32309985 18.43975878 4.34629283
90 2 5.32309985 23.04969848 4.34629283
91 1 7.98464977 0.00000000 4.34629283
92 1 7.98464977 4.60993970 4.34629283
93 1 7.98464977 9.21987939 4.34629283
94 1 7.98464977 13.82981909 4.34629283
95 2 7.98464977 18.43975878 4.34629283
96 1 7.98464977 23.04969848 4.34629283
97 2 10.64619970 0.00000000 4.34629283
98 1 10.64619970 4.60993970 4.34629283
99 2 10.64619970 9.21987939 4.34629283
100 3 10.64619970 13.82981909 4.34629283
101 2 10.64619970 18.43975878 4.34629283
102 1 10.64619970 23.04969848 4.34629283
103 2 13.30774962 0.00000000 4.34629283
104 2 13.30774962 4.60993970 4.34629283
105 1 13.30774962 9.21987939 4.34629283
106 1 13.30774962 13.82981909 4.34629283
107 2 13.30774962 18.43975878 4.34629283
108 1 13.30774962 23.04969848 4.34629283
109 2 1.33077496 0.00000000 6.51943924
110 2 1.33077496 4.60993970 6.51943924
111 2 1.33077496 9.21987939 6.51943924
112 2 1.33077496 13.82981909 6.51943924
113 1 1.33077496 18.43975878 6.51943924
114 1 1.33077496 23.04969848 6.51943924
115 2 3.99232489 0.00000000 6.51943924
116 2 3.99232489 4.60993970 6.51943924
117 1 3.99232489 9.21987939 6.51943924
118 2 3.99232489 13.82981909 6.51943924
119 1 3.99232489 18.43975878 6.51943924
120 3 3.99232489 23.04969848 6.51943924
121 1 6.65387481 0.00000000 6.51943924
122 1 6.65387481 4.60993970 6.51943924
123 1 6.65387481 9.21987939 6.51943924
124 1 6.65387481 13.82981909 6.51943924
125 3 6.65387481 18.43975878 6.51943924
126 2 6.65387481 23.04969848 6.51943924
127 1 9.31542474 0.00000000 6.51943924
128 1 9.31542474 4.60993970 6.51943924
129 1 9.31542474 9.21987939 6.51943924
130 2 9.31542474 13.82981909 6.51943924
131 3 9.31542474 18.43975878 6.51943924
132 2 9.31542474 23.04969848 6.51943924
133 3 11.97697466 0.00000000 6.51943924
134 2 11.97697466 4.60993970 6.51943924
135 1 11.97697466 9.21987939 6.51943924
136 3 11.97697466 13.82981909 6.51943924
137 1 11.97697466 18.43975878 6.51943924
138 2 11.97697466 23.04969848 6.51943924
139 2 14.63852458 0.00000000 6.51943924
140 2 14.63852458 4.60993970 6.51943924
141 1 14.63852458 9.21987939 6.51943924
142 1 14.63852458 13.82981909 6.51943924
143 1 14.63852458 18.43975878 6.51943924
144 2 14.63852458 23.04969848 6.51943924
145 3 0.00000000 0.00000000 8.69258565
146 1 0.00000000 4.60993970 8.69258565
147 1 0.00000000 9.21987939 8.69258565
148 2 0.00000000 13.82981909 8.69258565
149 1 0.00000000 18.43975878 8.69258565
150 1 0.00000000 23.04969848 8.69258565
151 2 2.66154992 0.00000000 8.69258565
152 1 2.66154992 4.60993970 8.69258565
153 2 2.66154992 9.21987939 8.69258565
154 3 2.66154992 13.82981909 8.69258565
155 2 2.66154992 18.43975878 8.69258565
156 2 2.66154992 23.04969848 8.69258565
157 2 5.32309985 0.00000000 8.69258565
158 2 5.32309985 4.60993970 8.69258565
159 3 5.32309985 9.21987939 8.69258565
160 1 5.32309985 13.82981909 8.69258565
161 1 5.32309985 18.43975878 8.69258565
162 1 5.32309985 23.04969848 8.69258565
163 3 7.98464977 0.00000000 8.69258565
164 2 7.98464977 4.60993970 8.69258565
165 2 7.98464977 9.21987939 8.69258565
166 1 7.98464977 13.82981909 8.69258565
167 2 7.98464977 18.43975878 8.69258565
168 3 7.98464977 23.04969848 8.69258565
169 2 10.64619970 0.00000000 8.69258565
170 2 10.64619970 4.60993970 8.69258565
171 1 10.64619970 9.21987939 8.69258565
172 1 10.64619970 13.82981909 8.69258565
173 2 10.64619970 18.43975878 8.69258565
174 2 10.64619970 23.04969848 8.69258565
175 2 13.30774962 0.00000000 8.69258565
176 2 13.30774962 4.60993970 8.69258565
177 2 13.30774962 9.21987939 8.69258565
178 2 13.30774962 13.82981909 8.69258565
179 3 13.30774962 18.43975878 8.69258565
180 1 13.30774962 23.04969848 8.69258565
181 2 1.33077496 2.30496985 10.86573207
182 2 1.33077496 6.91490954 10.86573207
183 2 1.33077496 11.52484924 10.86573207
184 2 1.33077496 16.13478894 10.86573207
185 1 1.33077496 20.74472863 10.86573207
186 1 1.33077496 25.35466833 10.86573207
187 1 3.99232489 2.30496985 10.86573207
188 2 3.99232489 6.91490954 10.86573207
189 1 3.99232489 11.52484924 10.86573207
190 1 3.99232489 16.13478894 10.86573207
191 3 3.99232489 20.74472863 10.86573207
192 3 3.99232489 25.35466833 10.86573207
193 3 6.65387481 2.30496985 10.86573207
194 3 6.65387481 6.91490954 10.86573207
195 2 6.65387481 11.52484924 10.86573207
196 2 6.65387481 16.13478894 10.86573207
197 2 6.65387481 20.74472863 10.86573207
198 2 6.65387481 25.35466833 10.86573207
199 2 9.31542474 2.30496985 10.86573207
200 1 9.31542474 6.91490954 10.86573207
201 2 9.31542474 11.52484924 10.86573207
202 3 9.31542474 16.13478894 10.86573207
203 1 9.31542474 20.74472863 10.86573207
204 1 9.31542474 25.35466833 10.86573207
205 2 11.97697466 2.30496985 10.86573207
206 2 11.97697466 6.91490954 10.86573207
207 2 11.97697466 11.52484924 10.86573207
208 1 11.97697466 16.13478894 10.86573207
209 2 11.97697466 20.74472863 10.86573207
210 2 11.97697466 25.35466833 10.86573207
211 2 14.63852458 2.30496985 10.86573207
212 2 14.63852458 6.91490954 10.86573207
213 1 14.63852458 11.52484924 10.86573207
214 1 14.63852458 16.13478894 10.86573207
215 3 14.63852458 20.74472863 10.86573207
216 3 14.63852458 25.35466833 10.86573207
217 2 0.00000000 0.00000000 13.03887848
218 1 0.00000000 4.60993970 13.03887848
219 1 0.00000000 9.21987939 13.03887848
220 1 0.00000000 13.82981909 13.03887848
221 1 0.00000000 18.43975878 13.03887848
222 3 0.00000000 23.04969848 13.03887848
223 2 2.66154992 0.00000000 13.03887848
224 2 2.66154992 4.60993970 13.03887848
225 1 2.66154992 9.21987939 13.03887848
226 2 2.66154992 13.82981909 13.03887848
227 2 2.66154992 18.43975878 13.03887848
228 1 2.66154992 23.04969848 13.03887848
229 3 5.32309985 0.00000000 13.03887848
230 2 5.32309985 4.60993970 13.03887848
231 1 5.32309985 9.21987939 13.03887848
232 2 5.32309985 13.82981909 13.03887848
233 2 5.32309985 18.43975878 13.03887848
234 3 5.32309985 23.04969848 13.03887848
235 1 7.98464977 0.00000000 13.03887848
236 2 7.98464977 4.60993970 13.03887848
237 2 7.98464977 9.21987939 13.03887848
238 3 7.98464977 13.82981909 13.03887848
239 3 7.98464977 18.43975878 13.03887848
240 2 7.98464977 23.04969848 13.03887848
241 2 10.64619970 0.00000000 13.03887848
242 1 10.64619970 4.60993970 13.03887848
243 3 10.64619970 9.21987939 13.03887848
244 3 10.64619970 13.82981909 13.03887848
245 1 10.64619970 18.43975878 13.03887848
246 2 10.64619970 23.04969848 13.03887848
247 1 13.30774962 0.00000000 13.03887848
248 1 13.30774962 4.60993970 13.03887848
249 3 13.30774962 9.21987939 13.03887848
250 1 13.30774962 13.82981909 13.03887848
251 1 13.30774962 18.43975878 13.03887848
252 1 13.30774962 23.04969848 13.03887848
253 3 1.33077496 0.00000000 15.21202489
254 2 1.33077496 4.60993970 15.21202489
255 3 1.33077496 9.21987939 15.21202489
256 2 1.33077496 13.82981909 15.21202489
257 3 1.33077496 18.43975878 15.21202489
258 3 1.33077496 23.04969848 15.21202489
259 3 3.99232489 0.00000000 15.21202489
260 2 3.99232489 4.60993970 15.21202489
261 2 3.99232489 9.21987939 15.21202489
262 3 3.99232489 13.82981909 15.21202489
263 2 3.99232489 18.43975878 15.21202489
264 3 3.99232489 23.04969848 15.21202489
265 2 6.65387481 0.00000000 15.21202489
266 1 6.65387481 4.60993970 15.21202489
267 1 6.65387481 9.21987939 15.21202489
268 1 6.65387481 13.82981909 15.21202489
269 3 6.65387481 18.43975878 15.21202489
270 2 6.65387481 23.04969848 15.21202489
271 2 9.31542474 0.00000000 15.21202489
272 1 9.31542474 4.60993970 15.21202489
273 2 9.31542474 9.21987939 15.21202489
274 1 9.31542474 13.82981909 15.21202489
275 2 9.31542474 18.43975878 15.21202489
276 1 9.31542474 23.04969848 15.21202489
277 1 11.97697466 0.00000000 15.21202489
278 1 11.97697466 4.60993970 15.21202489
279 2 11.97697466 9.21987939 15.21202489
280 1 11.97697466 13.82981909 15.21202489
281 2 11.97697466 18.43975878 15.21202489
282 1 11.97697466 23.04969848 15.21202489
283 2 14.63852458 0.00000000 15.21202489
284 1 14.63852458 4.60993970 15.21202489
285 2 14.63852458 9.21987939 15.21202489
286 1 14.63852458 13.82981909 15.21202489
287 1 14.63852458 18.43975878 15.21202489
288 3 14.63852458 23.04969848 15.21202489
289 1 0.00000000 0.00000000 17.38517131
290 1 0.00000000 4.60993970 17.38517131
291 2 0.00000000 9.21987939 17.38517131
292 3 0.00000000 13.82981909 17.38517131
293 2 0.00000000 18.43975878 17.38517131
294 2 0.00000000 23.04969848 17.38517131
295 3 2.66154992 0.00000000 17.38517131
296 2 2.66154992 4.60993970 17.38517131
297 2 2.66154992 9.21987939 17.38517131
298 1 2.66154992 13.82981909 17.38517131
299 1 2.66154992 18.43975878 17.38517131
300 3 2.66154992 23.04969848 17.38517131
301 1 5.32309985 0.00000000 17.38517131
302 3 5.32309985 4.60993970 17.38517131
303 3 5.32309985 9.21987939 17.38517131
304 1 5.32309985 13.82981909 17.38517131
305 1 5.32309985 18.43975878 17.38517131
306 1 5.32309985 23.04969848 17.38517131
307 3 7.98464977 0.00000000 17.38517131
308 1 7.98464977 4.60993970 17.38517131
309 3 7.98464977 9.21987939 17.38517131
310 1 7.98464977 13.82981909 17.38517131
311 3 7.98464977 18.43975878 17.38517131
312 2 7.98464977 23.04969848 17.38517131
313 3 10.64619970 0.00000000 17.38517131
314 1 10.64619970 4.60993970 17.38517131
315 1 10.64619970 9.21987939 17.38517131
316 3 10.64619970 13.82981909 17.38517131
317 3 10.64619970 18.43975878 17.38517131
318 2 10.64619970 23.04969848 17.38517131
319 2 13.30774962 0.00000000 17.38517131
320 2 13.30774962 4.60993970 17.38517131
321 2 13.30774962 9.21987939 17.38517131
322 1 13.30774962 13.82981909 17.38517131
323 1 13.30774962 18.43975878 17.38517131
324 2 13.30774962 23.04969848 17.38517131
325 1 1.33077496 2.30496985 19.55831772
326 1 1.33077496 6.91490954 19.55831772
327 1 1.33077496 11.52484924 19.55831772
328 3 1.33077496 16.13478894 19.55831772
329 2 1.33077496 20.74472863 19.55831772
330 2 1.33077496 25.35466833 19.55831772
331 3 3.99232489 2.30496985 19.55831772
332 2 3.99232489 6.91490954 19.55831772
333 2 3.99232489 11.52484924 19.55831772
334 2 3.99232489 16.13478894 19.55831772
335 1 3.99232489 20.74472863 19.55831772
336 3 3.99232489 25.35466833 19.55831772
337 1 6.65387481 2.30496985 19.55831772
338 1 6.65387481 6.91490954 19.55831772
339 1 6.65387481 11.52484924 19.55831772
340 3 6.65387481 16.13478894 19.55831772
341 1 6.65387481 20.74472863 19.55831772
342 1 6.65387481 25.35466833 19.55831772
343 1 9.31542474 2.30496985 19.55831772
344 2 9.31542474 6.91490954 19.55831772
345 2 9.31542474 11.52484924 19.55831772
346 3 9.31542474 16.13478894 19.55831772
347 1 9.31542474 20.74472863 19.55831772
348 1 9.31542474 25.35466833 19.55831772
349 1 11.97697466 2.30496985 19.55831772
350 2 11.97697466 6.91490954 19.55831772
351 2 11.97697466 11.52484924 19.55831772
352 2 11.97697466 16.13478894 19.55831772
353 3 11.97697466 20.74472863 19.55831772
354 1 11.97697466 25.35466833 19.55831772
355 2 14.63852458 2.30496985 19.55831772
356 1 14.63852458 6.91490954 19.55831772
357 3 14.63852458 11.52484924 19.55831772
358 3 14.63852458 16.13478894 19.55831772
359 2 14.63852458 20.74472863 19.55831772
360 3 14.63852458 25.35466833 19.55831772
361 2 0.00000000 0.00000000 21.73146413
362 3 0.00000000 4.60993970 21.73146413
363 1 0.00000000 9.21987939 21.73146413
364 1 0.00000000 13.82981909 21.73146413
365 3 0.00000000 18.43975878 21.73146413
366 2 0.00000000 23.04969848 21.73146413
367 1 2.66154992 0.00000000 21.73146413
368 2 2.66154992 4.60993970 21.73146413
369 1 2.66154992 9.21987939 21.73146413
370 1 2.66154992 13.82981909 21.73146413
371 2 2.66154992 18.43975878 21.73146413
372 2 2.66154992 23.04969848 21.73146413
373 1 5.32309985 0.00000000 21.73146413
374 3 5.32309985 4.60993970 21.73146413
375 1 5.32309985 9.21987939 21.73146413
376 1 5.32309985 13.82981909 21.73146413
377 2 5.32309985 18.43975878 21.73146413
378 3 5.32309985 23.04969848 21.73146413
379 3 7.98464977 0.00000000 21.73146413
380 3 7.98464977 4.60993970 21.73146413
381 1 7.98464977 9.21987939 21.73146413
382 3 7.98464977 13.82981909 21.73146413
383 2 7.98464977 18.43975878 21.73146413
384 3 7.98464977 23.04969848 21.73146413
385 2 10.64619970 0.00000000 21.73146413
386 2 10.64619970 4.60993970 21.73146413
387 1 10.64619970 9.21987939 21.73146413
388 1 10.64619970 13.82981909 21.73146413
389 2 10.64619970 18.43975878 21.73146413
390 1 10.64619970 23.04969848 21.73146413
391 3 13.30774962 0.00000000 21.73146413
392 2 13.30774962 4.60993970 21.73146413
393 2 13.30774962 9.21987939 21.73146413
394 1 13.30774962 13.82981909 21.73146413
395 3 13.30774962 18.43975878 21.73146413
396 2 13.30774962 23.04969848 21.73146413
397 2 1.33077496 0.00000000 23.90461055
398 2 1.33077496 4.60993970 23.90461055
399 1 1.33077496 9.21987939 23.90461055
400 1 1.33077496 13.82981909 23.90461055
401 1 1.33077496 18.43975878 23.90461055
402 1 1.33077496 23.04969848 23.90461055
403 1 3.99232489 0.00000000 23.90461055
404 1 3.99232489 4.60993970 23.90461055
405 1 3.99232489 9.21987939 23.90461055
406 3 3.99232489 13.82981909 23.90461055
407 1 3.99232489 18.43975878 23.90461055
408 2 3.99232489 23.04969848 23.90461055
409 1 6.65387481 0.00000000 23.90461055
410 2 6.65387481 4.60993970 23.90461055
411 3 6.65387481 9.21987939 23.90461055
412 3 6.65387481 13.82981909 23.90461055
413 1 6.65387481 18.43975878 23.90461055
414 3 6.65387481 23.04969848 23.90461055
415 2 9.31542474 0.00000000 23.90461055
416 2 9.31542474 4.60993970 23.90461055
417 1 9.31542474 9.21987939 23.90461055
418 2 9.31542474 13.82981909 23.90461055
419 2 9.31542474 18.43975878 23.90461055
420 1 9.31542474 23.04969848 23.90461055
421 3 11.97697466 0.00000000 23.90461055
422 1 11.97697466 4.60993970 23.90461055
423 1 11.97697466 9.21987939 23.90461055
424 1 11.97697466 13.82981909 23.90461055
425 3 11.97697466 18.43975878 23.90461055
426 2 11.97697466 23.04969848 23.90461055
427 1 14.63852458 0.00000000 23.90461055
428 1 14.63852458 4.60993970 23.90461055
429 1 14.63852458 9.21987939 23.90461055
430 3 14.63852458 13.82981909 23.90461055
431 3 14.63852458 18.43975878 23.90461055
432 3 14.63852458 23.04969848 23.90461055
