LAMMPS (10 Sep 2025)
  using 8 OpenMP thread(s) per MPI task
Loaded 1 plugins from C:\Users\harsh\Downloads\LAMMPS 64-bit 10Sep2025\plugins
using multi-threaded neighbor list subroutines
Reading data file ...
  orthogonal box = (0 0 0) to (23.625 23.625 23.625)
  1 by 1 by 1 MPI processor grid
  reading atoms ...
  864 atoms
  read_data CPU = 0.008 seconds
=== STAGE 1: Energy Minimization ===
Switching to 'neigh_modify every 1 delay 0 check yes' setting during minimization
No /omp style for force computation currently active
Neighbor list info ...
  update: every = 1 steps, delay = 0 steps, check = yes
  max neighbors/atom: 4000, page size: 100000
  master list distance cutoff = 8
  ghost atom cutoff = 8
  binsize = 4, bins = 6 6 6
  2 neighbor lists, perpetual/occasional/extra = 2 0 0
  (1) pair meam, perpetual
      attributes: full, newton on, omp
      pair build: full/bin/atomonly/omp
      stencil: full/bin/3d
      bin: standard
  (2) pair meam, perpetual, half/full from (1)
      attributes: half, newton on, omp
      pair build: halffull/newton/omp
      stencil: none
      bin: none
Setting up cg style minimization ...
  Unit style    : metal
  Current step  : 0
Per MPI rank memory allocation (min/avg/max) = 20.91 | 20.91 | 20.91 Mbytes
   Step          Temp          PotEng         KinEng         TotEng         Press          Volume           Lx             Ly             Lz      
         0   0             -3191.6531      0             -3191.6531     -82853.753      13186.072      23.625         23.625         23.625       
        40   0             -3259.4745      0             -3259.4745     -90703.4        13186.072      23.625         23.625         23.625       
Loop time of 2.74973 on 8 procs for 40 steps with 864 atoms

95.5% CPU use with 1 MPI tasks x 8 OpenMP threads

Minimization stats:
  Stopping criterion = energy tolerance
  Energy initial, next-to-last, final = 
     -3191.65306746458    -3259.472120807  -3259.47452691376
  Force two-norm initial, final = 23.087473 0.19254717
  Force max component initial, final = 1.8529605 0.05796095
  Final line search alpha, max atom move = 1 0.05796095
  Iterations, force evaluations = 40 76

MPI task timing breakdown:
Section |  min time  |  avg time  |  max time  |%varavg| %total
---------------------------------------------------------------
Pair    | 2.7254     | 2.7254     | 2.7254     |   0.0 | 99.12
Neigh   | 0.002041   | 0.002041   | 0.002041   |   0.0 |  0.07
Comm    | 0.002324   | 0.002324   | 0.002324   |   0.0 |  0.08
Output  | 0          | 0          | 0          |   0.0 |  0.00
Modify  | 0.017057   | 0.017057   | 0.017057   |   0.0 |  0.62
Other   |            | 0.002886   |            |       |  0.10

Nlocal:            864 ave         864 max         864 min
Histogram: 1 0 0 0 0 0 0 0 0 0
Nghost:           3364 ave        3364 max        3364 min
Histogram: 1 0 0 0 0 0 0 0 0 0
Neighs:          60625 ave       60625 max       60625 min
Histogram: 1 0 0 0 0 0 0 0 0 0
FullNghs:       121250 ave      121250 max      121250 min
Histogram: 1 0 0 0 0 0 0 0 0 0

Total # of neighbors = 121250
Ave neighs/atom = 140.33565
Neighbor list builds = 1
Dangerous builds = 0
Minimized PE/atom: -3.77253996170575 eV/atom
=== STAGE 2: NPT Equilibration at 200 K ===
No /omp style for force computation currently active
Setting up Verlet run ...
  Unit style    : metal
  Current step  : 0
  Time step     : 0.002
Per MPI rank memory allocation (min/avg/max) = 19.79 | 19.79 | 19.79 Mbytes
   Step          Temp          PotEng         KinEng         TotEng         Press          Volume           Lx             Ly             Lz      
         0   200           -3259.4745      22.310301     -3237.1642     -88896.188      13186.072      23.625         23.625         23.625       
       500   219.22211     -3306.0282      24.454556     -3281.5736      2383.7525      11347.479      22.471555      22.471555      22.471555    
      1000   198.31647     -3315.9376      22.1225       -3293.8151     -1592.3422      11233.601      22.396131      22.396131      22.396131    
      1500   194.63242     -3319.6168      21.711539     -3297.9053     -412.10797      11177.359      22.358692      22.358692      22.358692    
      2000   204.72972     -3322.2899      22.837908     -3299.452      -1157.1021      11137.405      22.33202       22.33202       22.33202     
      2500   197.79109     -3321.26        22.063893     -3299.1961      835.42378      11120.634      22.320805      22.320805      22.320805    
      3000   191.94737     -3324.2414      21.412018     -3302.8294      9.0022829      11084.517      22.296614      22.296614      22.296614    
      3500   199.01331     -3323.8565      22.200234     -3301.6562     -346.55294      11087.3        22.29848       22.29848       22.29848     
      4000   202.76854     -3324.2379      22.619135     -3301.6188      553.77113      11083.991      22.296262      22.296262      22.296262    
      4500   200.22117     -3323.8398      22.334973     -3301.5048     -211.5078       11071.841      22.288112      22.288112      22.288112    
      5000   199.61488     -3324.6531      22.26734      -3302.3857     -2385.7754      11073.646      22.289323      22.289323      22.289323    
      5500   199.42859     -3325.9966      22.246559     -3303.75       -241.95623      11041.586      22.267792      22.267792      22.267792    
      6000   205.36462     -3326.3125      22.908732     -3303.4038     -849.26853      11036.016      22.264047      22.264047      22.264047    
      6500   200.68606     -3326.7739      22.386832     -3304.3871     -3166.8329      11035.331      22.263586      22.263586      22.263586    
      7000   201.66776     -3327.3433      22.496342     -3304.847      -1327.2491      11015.111      22.24998       22.24998       22.24998     
      7500   199.13768     -3327.8589      22.214108     -3305.6448     -1447.3296      11000.801      22.240341      22.240341      22.240341    
      8000   190.86526     -3326.3216      21.291307     -3305.0303      779.42126      10965.698      22.21666       22.21666       22.21666     
      8500   197.71395     -3329.0022      22.055288     -3306.9469      2043.9637      10940.158      22.199398      22.199398      22.199398    
      9000   191.55846     -3328.1847      21.368634     -3306.8161      1246.0362      10939.82       22.199169      22.199169      22.199169    
      9500   203.4689      -3327.417       22.697262     -3304.7197      556.1382       10950.298      22.206255      22.206255      22.206255    
     10000   210.04734     -3328.2523      23.431097     -3304.8212      1840.0162      10931.664      22.193652      22.193652      22.193652    
     10500   202.10342     -3329.6683      22.54494      -3307.1234      3655.6198      10914.008      22.181697      22.181697      22.181697    
     11000   195.14314     -3328.5866      21.768511     -3306.8181      1883.3168      10931.73       22.193696      22.193696      22.193696    
     11500   195.29911     -3327.8986      21.78591      -3306.1127      3644.1239      10925.462      22.189453      22.189453      22.189453    
     12000   195.53863     -3330.3937      21.812629     -3308.5811     -888.76713      10932.498      22.194216      22.194216      22.194216    
     12500   197.33248     -3329.6943      22.012735     -3307.6815     -1538.425       10946.497      22.203685      22.203685      22.203685    
     13000   200.27562     -3329.1872      22.341046     -3306.8462     -821.43677      10936.614      22.197001      22.197001      22.197001    
     13500   206.53585     -3329.0925      23.039385     -3306.0531     -2548.7659      10935.606      22.196319      22.196319      22.196319    
     14000   202.78399     -3329.5864      22.620859     -3306.9656     -1518.3964      10931.39       22.193466      22.193466      22.193466    
     14500   199.28347     -3329.665       22.230371     -3307.4347     -1271.0004      10912.227      22.18049       22.18049       22.18049     
     15000   185.77667     -3329.603       20.723668     -3308.8793      1625.0883      10893.205      22.167594      22.167594      22.167594    
     15500   198.18393     -3330.3598      22.107715     -3308.252       1140.0541      10901.953      22.173527      22.173527      22.173527    
     16000   203.00621     -3330.0672      22.645649     -3307.4216      1186.0332      10882.95       22.160635      22.160635      22.160635    
     16500   202.24138     -3330.3369      22.56033      -3307.7765      1604.3838      10888.686      22.164528      22.164528      22.164528    
     17000   195.13254     -3331.1611      21.767328     -3309.3938     -1225.9143      10912.258      22.180511      22.180511      22.180511    
     17500   182.81306     -3329.7237      20.393072     -3309.3306     -951.97321      10928.612      22.191585      22.191585      22.191585    
     18000   189.35357     -3330.0337      21.122676     -3308.911      -932.05824      10918.034      22.184423      22.184423      22.184423    
     18500   204.53477     -3330.7894      22.816161     -3307.9732     -2374.7918      10919.524      22.185433      22.185433      22.185433    
     19000   205.44942     -3329.8111      22.918192     -3306.8929     -1245.2482      10911.439      22.179956      22.179956      22.179956    
     19500   202.88953     -3330.4323      22.632633     -3307.7996     -2088.5184      10905.747      22.176098      22.176098      22.176098    
     20000   198.16639     -3330.9659      22.105759     -3308.8601     -1268.6178      10919.751      22.185587      22.185587      22.185587    
Loop time of 739.144 on 8 procs for 20000 steps with 864 atoms

Performance: 4.676 ns/day, 5.133 hours/ns, 27.058 timesteps/s, 23.378 katom-step/s
95.9% CPU use with 1 MPI tasks x 8 OpenMP threads

MPI task timing breakdown:
Section |  min time  |  avg time  |  max time  |%varavg| %total
---------------------------------------------------------------
Pair    | 711.88     | 711.88     | 711.88     |   0.0 | 96.31
Neigh   | 0.00584    | 0.00584    | 0.00584    |   0.0 |  0.00
Comm    | 0.52547    | 0.52547    | 0.52547    |   0.0 |  0.07
Output  | 0.00387    | 0.00387    | 0.00387    |   0.0 |  0.00
Modify  | 26.659     | 26.659     | 26.659     |   0.0 |  3.61
Other   |            | 0.06677    |            |       |  0.01

Nlocal:            864 ave         864 max         864 min
Histogram: 1 0 0 0 0 0 0 0 0 0
Nghost:           3721 ave        3721 max        3721 min
Histogram: 1 0 0 0 0 0 0 0 0 0
Neighs:          72279 ave       72279 max       72279 min
Histogram: 1 0 0 0 0 0 0 0 0 0
FullNghs:       144558 ave      144558 max      144558 min
Histogram: 1 0 0 0 0 0 0 0 0 0

Total # of neighbors = 144558
Ave neighs/atom = 167.3125
Neighbor list builds = 3
Dangerous builds = 0
=== STAGE 3: NPT Production at 200 K ===
No /omp style for force computation currently active
Setting up Verlet run ...
  Unit style    : metal
  Current step  : 0
  Time step     : 0.001
Per MPI rank memory allocation (min/avg/max) = 20.07 | 20.07 | 20.07 Mbytes
   Step          Temp          PotEng         KinEng         TotEng         Press          Volume           Lx             Ly             Lz      
         0   198.16639     -3330.9659      22.105759     -3308.8601     -1268.6178      10919.751      22.185587      22.185587      22.185587    
       500   203.0262      -3331.2475      22.647878     -3308.5996     -2879.8918      10920.346      22.185989      22.185989      22.185989    
      1000   204.84238     -3330.0741      22.850476     -3307.2236     -1794.0201      10911.063      22.179701      22.179701      22.179701    
      1500   209.18679     -3330.9196      23.335102     -3307.5845      2155.0769      10895.468      22.169129      22.169129      22.169129    
      2000   196.11554     -3330.4392      21.876984     -3308.5622     -1473.058       10903.923      22.174862      22.174862      22.174862    
      2500   201.01624     -3331.5886      22.423664     -3309.165      -423.89523      10901.553      22.173255      22.173255      22.173255    
      3000   188.68145     -3331.2992      21.0477       -3310.2515     -1875.9684      10909.838      22.178871      22.178871      22.178871    
      3500   197.83223     -3331.6354      22.068483     -3309.5669      1331.5642      10886.028      22.162724      22.162724      22.162724    
      4000   200.23206     -3331.1693      22.336187     -3308.8331      1644.1816      10881.536      22.159676      22.159676      22.159676    
      4500   197.87147     -3330.5259      22.072861     -3308.4531      223.17768      10898.255      22.171019      22.171019      22.171019    
      5000   208.65017     -3330.9421      23.275241     -3307.6668     -2147.7731      10908.577      22.178016      22.178016      22.178016    
      5500   200.20604     -3330.4942      22.333285     -3308.1609     -1291.6594      10904.828      22.175475      22.175475      22.175475    
      6000   197.97382     -3331.1801      22.084278     -3309.0959      84.239202      10891.264      22.166277      22.166277      22.166277    
      6500   206.03645     -3330.7531      22.983676     -3307.7695      201.93755      10892.575      22.167167      22.167167      22.167167    
      7000   199.79675     -3330.5841      22.287628     -3308.2965      2480.7602      10870.572      22.152231      22.152231      22.152231    
      7500   189.73221     -3331.1045      21.164914     -3309.9396     -556.00293      10890.121      22.165502      22.165502      22.165502    
      8000   195.06522     -3332.0289      21.759819     -3310.2691      1443.4149      10871.088      22.152581      22.152581      22.152581    
      8500   199.80912     -3330.5139      22.289008     -3308.2249      3795.2538      10861.847      22.146303      22.146303      22.146303    
      9000   203.92671     -3330.6914      22.748332     -3307.943       2398.2491      10880.691      22.159102      22.159102      22.159102    
      9500   200.43437     -3332.5961      22.358755     -3310.2373      1287.6395      10872.218      22.153348      22.153348      22.153348    
     10000   197.87578     -3331.1968      22.073341     -3309.1235      1693.2244      10887.482      22.163711      22.163711      22.163711    
     10500   205.77177     -3332.3285      22.95415      -3309.3744      1314.5612      10873.762      22.154398      22.154398      22.154398    
     11000   208.00978     -3330.0966      23.203804     -3306.8928     -1571.1919      10916.837      22.183613      22.183613      22.183613    
     11500   205.76504     -3330.118       22.9534       -3307.1646     -1041.5995      10912.295      22.180536      22.180536      22.180536    
     12000   198.79996     -3330.1694      22.176435     -3307.9929     -1384.8088      10916.873      22.183637      22.183637      22.183637    
     12500   202.78231     -3331.1984      22.620671     -3308.5778     -1416.26        10900.113      22.172279      22.172279      22.172279    
     13000   193.93217     -3331.5712      21.633426     -3309.9378     -1088.1701      10887.141      22.16348       22.16348       22.16348     
     13500   201.2673      -3331.6236      22.45167      -3309.1719     -1972.412       10899.976      22.172186      22.172186      22.172186    
     14000   196.17688     -3330.7046      21.883826     -3308.8208     -1352.4684      10905.126      22.175677      22.175677      22.175677    
     14500   197.94775     -3331.117       22.081369     -3309.0356     -1467.1546      10901.361      22.173125      22.173125      22.173125    
     15000   188.59452     -3331.2823      21.038003     -3310.2442      1092.2851      10864.535      22.14813       22.14813       22.14813     
     15500   199.40648     -3331.6281      22.244093     -3309.384       3913.7861      10852.087      22.139667      22.139667      22.139667    
     16000   205.2103      -3331.4107      22.891518     -3308.5191      1534.6306      10868.722      22.150974      22.150974      22.150974    
     16500   197.73215     -3331.3651      22.057319     -3309.3078     -56.209864      10871.959      22.153173      22.153173      22.153173    
     17000   199.48961     -3332.1527      22.253366     -3309.8993      758.76976      10869.082      22.151218      22.151218      22.151218    
     17500   199.16153     -3332.1235      22.216768     -3309.9067      3191.1534      10858.895      22.144296      22.144296      22.144296    
     18000   192.81432     -3331.7929      21.508728     -3310.2842      2784.6349      10850.22       22.138397      22.138397      22.138397    
     18500   200.30462     -3331.8604      22.344281     -3309.5161      4389.164       10845.934      22.135482      22.135482      22.135482    
     19000   201.10161     -3331.2826      22.433187     -3308.8494      2434.4915      10861.128      22.145814      22.145814      22.145814    
     19500   205.65703     -3331.7066      22.941352     -3308.7653      1702.6398      10866.414      22.149406      22.149406      22.149406    
     20000   206.77513     -3333.0986      23.066077     -3310.0325     -173.11849      10870.915      22.152464      22.152464      22.152464    
     20500   197.43837     -3332.3709      22.024548     -3310.3464     -704.7461       10890.034      22.165443      22.165443      22.165443    
     21000   209.50258     -3332.1178      23.370328     -3308.7474      193.2584       10885.451      22.162333      22.162333      22.162333    
     21500   193.11218     -3330.7068      21.541954     -3309.1648      3717.1091      10848.351      22.137126      22.137126      22.137126    
     22000   202.31708     -3332.0531      22.568775     -3309.4844      2815.0477      10835.076      22.128093      22.128093      22.128093    
     22500   198.26891     -3332.7754      22.117195     -3310.6582      2668.3715      10828.404      22.12355       22.12355       22.12355     
     23000   204.57749     -3332.8204      22.820927     -3309.9995      669.27357      10850.005      22.138251      22.138251      22.138251    
     23500   204.23968     -3331.4778      22.783244     -3308.6946     -1871.6161      10872.468      22.153519      22.153519      22.153519    
     24000   201.53698     -3331.6822      22.481753     -3309.2004     -516.8751       10865.159      22.148553      22.148553      22.148553    
     24500   203.84367     -3332.6574      22.739068     -3309.9183     -1152.1869      10864.802      22.148311      22.148311      22.148311    
     25000   196.54113     -3333.2025      21.924459     -3311.278      -1473.8975      10867.301      22.150008      22.150008      22.150008    
     25500   203.37521     -3332.0198      22.68681      -3309.333      -2759.1606      10879.771      22.158478      22.158478      22.158478    
     26000   201.78886     -3332.7637      22.509851     -3310.2539     -2079.7061      10860.595      22.145451      22.145451      22.145451    
     26500   199.05494     -3332.7061      22.204878     -3310.5012     -2087.7381      10857.533      22.14337       22.14337       22.14337     
     27000   199.96448     -3331.6963      22.306338     -3309.3899     -741.78886      10858.943      22.144328      22.144328      22.144328    
     27500   208.22825     -3332.0981      23.228175     -3308.8699     -1708.9232      10852.845      22.140183      22.140183      22.140183    
     28000   196.08375     -3333.5153      21.873438     -3311.6419     -421.06034      10840.141      22.13154       22.13154       22.13154     
     28500   193.10416     -3333.1844      21.54106      -3311.6433     -531.37538      10846.074      22.135578      22.135578      22.135578    
     29000   191.40658     -3331.6248      21.351692     -3310.2731      3072.3677      10812.769      22.112897      22.112897      22.112897    
     29500   198.60128     -3333.2902      22.154272     -3311.136      -2891.1236      10856.535      22.142691      22.142691      22.142691    
     30000   202.22537     -3332.535       22.558545     -3309.9765      747.34563      10844.301      22.134371      22.134371      22.134371    
     30500   197.55493     -3333.1403      22.03755      -3311.1027      425.68776      10818.074      22.116513      22.116513      22.116513    
     31000   197.8469      -3333.5116      22.07012      -3311.4415      941.53557      10804.632      22.107349      22.107349      22.107349    
     31500   198.27121     -3332.3728      22.117452     -3310.2553      1574.6543      10822.567      22.119574      22.119574      22.119574    
     32000   198.12654     -3332.7077      22.101314     -3310.6064     -1521.3981      10848.182      22.137011      22.137011      22.137011    
     32500   198.09532     -3333.9008      22.097831     -3311.803      -1408.9797      10833.676      22.12714       22.12714       22.12714     
     33000   200.41757     -3333.405       22.356882     -3311.0481      355.32946      10822.202      22.119326      22.119326      22.119326    
     33500   200.08324     -3332.9067      22.319586     -3310.5871     -1382.0721      10836.23       22.128879      22.128879      22.128879    
     34000   207.16398     -3331.3863      23.109454     -3308.2769     -1183.999       10841.448      22.13243       22.13243       22.13243     
     34500   199.24114     -3333.2356      22.225649     -3311.0099     -1171.5909      10817.762      22.1163        22.1163        22.1163      
     35000   192.09097     -3332.8379      21.428037     -3311.4099     -1053.9252      10834.333      22.127587      22.127587      22.127587    
     35500   207.89877     -3333.5045      23.19142      -3310.313      -546.81156      10818.993      22.117139      22.117139      22.117139    
     36000   198.35053     -3331.9407      22.1263       -3309.8144      2252.039       10800.064      22.104233      22.104233      22.104233    
     36500   199.40766     -3333.3394      22.244225     -3311.0951      1290.3428      10792.429      22.099023      22.099023      22.099023    
     37000   197.28276     -3333.251       22.007188     -3311.2438      1792.1827      10794.208      22.100237      22.100237      22.100237    
     37500   194.66369     -3331.9559      21.715028     -3310.2409      1408.7172      10804.571      22.107307      22.107307      22.107307    
     38000   203.74107     -3332.1554      22.727622     -3309.4277      121.4198       10813.101      22.113123      22.113123      22.113123    
     38500   208.99783     -3333.1581      23.314023     -3309.8441      3406.8501      10780.112      22.090613      22.090613      22.090613    
     39000   201.18204     -3333.6372      22.442159     -3311.195      -336.84671      10811.544      22.112062      22.112062      22.112062    
     39500   194.28577     -3333.6319      21.67287      -3311.959       1145.9145      10806.001      22.108283      22.108283      22.108283    
     40000   201.85379     -3333.8249      22.517094     -3311.3078      2594.3284      10785.15       22.094053      22.094053      22.094053    
     40500   207.20533     -3333.2315      23.114066     -3310.1175      3365.8588      10786.111      22.094709      22.094709      22.094709    
     41000   194.58356     -3332.7118      21.706089     -3311.0057     -1336.8263      10822.626      22.119614      22.119614      22.119614    
     41500   200.49716     -3333.6531      22.36576      -3311.2874      67.728004      10820.612      22.118242      22.118242      22.118242    
     42000   193.40385     -3333.5762      21.57449      -3312.0017     -1110.916       10812.631      22.112803      22.112803      22.112803    
     42500   204.99145     -3333.5508      22.867105     -3310.6837     -49.461693      10821.165      22.118619      22.118619      22.118619    
     43000   205.30697     -3333.14        22.902301     -3310.2377     -1128.511       10825.711      22.121716      22.121716      22.121716    
     43500   193.61908     -3333.0627      21.5985       -3311.4642     -4875.8144      10860.899      22.145658      22.145658      22.145658    
     44000   196.54242     -3332.715       21.924603     -3310.7904     -3084.9399      10841.129      22.132213      22.132213      22.132213    
     44500   203.48482     -3333.1097      22.699038     -3310.4107     -3682.0899      10853.69       22.140757      22.140757      22.140757    
     45000   200.67933     -3332.1487      22.386081     -3309.7626      472.3768       10814.924      22.114366      22.114366      22.114366    
     45500   202.70058     -3332.9317      22.611555     -3310.3202      2788.2608      10793.749      22.099924      22.099924      22.099924    
     46000   195.73864     -3333.2171      21.83494      -3311.3821      3466.6716      10790.538      22.097732      22.097732      22.097732    
     46500   203.62326     -3333.1657      22.714481     -3310.4512      2422.5579      10796.199      22.101595      22.101595      22.101595    
     47000   213.10935     -3333.3678      23.772668     -3309.5951     -675.12587      10825.485      22.121562      22.121562      22.121562    
     47500   206.22644     -3333.6868      23.00487      -3310.6819     -888.51741      10824.098      22.120617      22.120617      22.120617    
     48000   203.23376     -3334.2687      22.671031     -3311.5977     -244.42792      10816.861      22.115686      22.115686      22.115686    
     48500   193.61134     -3333.2647      21.597636     -3311.6671      3047.8161      10796.715      22.101947      22.101947      22.101947    
     49000   210.67324     -3333.4011      23.500917     -3309.9001      761.29901      10804.08       22.106972      22.106972      22.106972    
     49500   200.96188     -3332.4807      22.4176       -3310.0631      1186.8556      10814.697      22.114211      22.114211      22.114211    
     50000   198.93923     -3334.3842      22.191971     -3312.1922     -268.26656      10809.707      22.110809      22.110809      22.110809    
Loop time of 1861.46 on 8 procs for 50000 steps with 864 atoms

Performance: 2.321 ns/day, 10.341 hours/ns, 26.861 timesteps/s, 23.208 katom-step/s
95.9% CPU use with 1 MPI tasks x 8 OpenMP threads

MPI task timing breakdown:
Section |  min time  |  avg time  |  max time  |%varavg| %total
---------------------------------------------------------------
Pair    | 1794.6     | 1794.6     | 1794.6     |   0.0 | 96.41
Neigh   | 0.001919   | 0.001919   | 0.001919   |   0.0 |  0.00
Comm    | 1.3123     | 1.3123     | 1.3123     |   0.0 |  0.07
Output  | 0.009332   | 0.009332   | 0.009332   |   0.0 |  0.00
Modify  | 65.38      | 65.38      | 65.38      |   0.0 |  3.51
Other   |            | 0.1756     |            |       |  0.01

Nlocal:            864 ave         864 max         864 min
Histogram: 1 0 0 0 0 0 0 0 0 0
Nghost:           3715 ave        3715 max        3715 min
Histogram: 1 0 0 0 0 0 0 0 0 0
Neighs:          73407 ave       73407 max       73407 min
Histogram: 1 0 0 0 0 0 0 0 0 0
FullNghs:       146814 ave      146814 max      146814 min
Histogram: 1 0 0 0 0 0 0 0 0 0

Total # of neighbors = 146814
Ave neighs/atom = 169.92361
Neighbor list builds = 1
Dangerous builds = 0

=== FINAL RESULTS: FCC at 200 K ===
Atoms: 864 | PE/atom: -3.85822492118957 eV/atom
WARNING: Detected non-ASCII characters in input. Will try to continue by replacing with ASCII equivalents where known. (src/input.cpp:479)
Volume: 10809.706879667 …³ | Area: 488.887888540442 ²
==========================================
FCC 200 864 -3.85822492118957 10809.706879667 22.1108093144607 22.1108093144607 22.1108093144607 488.887888540442
Simulation complete!
Total wall time: 0:43:23
