LAMMPS (10 Sep 2025)
  using 8 OpenMP thread(s) per MPI task
Loaded 1 plugins from C:\Users\harsh\Downloads\LAMMPS 64-bit 10Sep2025\plugins
using multi-threaded neighbor list subroutines
Reading data file ...
  orthogonal box = (0 0 0) to (16.705398 28.934598 27.2798)
  1 by 1 by 1 MPI processor grid
  reading atoms ...
  432 atoms
  read_data CPU = 0.004 seconds
=== STAGE 1: Energy Minimization ===
Switching to 'neigh_modify every 1 delay 0 check yes' setting during minimization
No /omp style for force computation currently active
Neighbor list info ...
  update: every = 1 steps, delay = 0 steps, check = yes
  max neighbors/atom: 4000, page size: 100000
  master list distance cutoff = 8
  ghost atom cutoff = 8
  binsize = 4, bins = 5 8 7
  2 neighbor lists, perpetual/occasional/extra = 2 0 0
  (1) pair meam, perpetual
      attributes: full, newton on, omp
      pair build: full/bin/atomonly/omp
      stencil: full/bin/3d
      bin: standard
  (2) pair meam, perpetual, half/full from (1)
      attributes: half, newton on, omp
      pair build: halffull/newton/omp
      stencil: none
      bin: none
Setting up cg style minimization ...
  Unit style    : metal
  Current step  : 0
Per MPI rank memory allocation (min/avg/max) = 19.3 | 19.3 | 19.3 Mbytes
   Step          Temp          PotEng         KinEng         TotEng         Press          Volume           Lx             Ly             Lz      
         0   0             -1002.3625      0             -1002.3625     -109454.33      13186.072      16.705398      28.934598      27.2798      
       269   0             -1477.3259      0             -1477.3259     -16607.71       13186.072      16.705398      28.934598      27.2798      
Loop time of 5.11762 on 8 procs for 269 steps with 432 atoms

89.2% CPU use with 1 MPI tasks x 8 OpenMP threads

Minimization stats:
  Stopping criterion = energy tolerance
  Energy initial, next-to-last, final = 
     -1002.36247461269  -1477.32444368426  -1477.32591615106
  Force two-norm initial, final = 6.2005143 8.7238596
  Force max component initial, final = 0.58319845 4.7137134
  Final line search alpha, max atom move = 0.003765493 0.017749455
  Iterations, force evaluations = 269 604

MPI task timing breakdown:
Section |  min time  |  avg time  |  max time  |%varavg| %total
---------------------------------------------------------------
Pair    | 4.8371     | 4.8371     | 4.8371     |   0.0 | 94.52
Neigh   | 0.009495   | 0.009495   | 0.009495   |   0.0 |  0.19
Comm    | 0.012713   | 0.012713   | 0.012713   |   0.0 |  0.25
Output  | 0          | 0          | 0          |   0.0 |  0.00
Modify  | 0.24095    | 0.24095    | 0.24095    |   0.0 |  4.71
Other   |            | 0.0174     |            |       |  0.34

Nlocal:            432 ave         432 max         432 min
Histogram: 1 0 0 0 0 0 0 0 0 0
Nghost:           1804 ave        1804 max        1804 min
Histogram: 1 0 0 0 0 0 0 0 0 0
Neighs:          15776 ave       15776 max       15776 min
Histogram: 1 0 0 0 0 0 0 0 0 0
FullNghs:        31552 ave       31552 max       31552 min
Histogram: 1 0 0 0 0 0 0 0 0 0

Total # of neighbors = 31552
Ave neighs/atom = 73.037037
Neighbor list builds = 10
Dangerous builds = 0
Minimized PE/atom: -3.41973591701635 eV/atom
=== STAGE 2: NPT Equilibration at 200 K ===
No /omp style for force computation currently active
Setting up Verlet run ...
  Unit style    : metal
  Current step  : 0
  Time step     : 0.002
Per MPI rank memory allocation (min/avg/max) = 18.17 | 18.17 | 18.17 Mbytes
   Step          Temp          PotEng         KinEng         TotEng         Press          Volume           Lx             Ly             Lz      
         0   200           -1477.3259      11.142224     -1466.1837     -15705.151      13186.072      16.705398      28.934598      27.2798      
       500   348.41532     -1558.2284      19.410609     -1538.8178     -4362.3159      9328.3531      14.885154      25.781843      24.307354    
      1000   227.40332     -1586.6957      12.668894     -1574.0268      548.63792      8533.1061      14.449541      25.027339      23.596002    
      1500   204.76376     -1593.9468      11.407619     -1582.5392     -816.12966      8271.4993      14.300342      24.768918      23.35236     
      2000   192.15423     -1602.7269      10.705128     -1592.0217     -3994.113       8141.1609      14.224831      24.63813       23.229052    
      2500   192.86398     -1613.7864      10.744669     -1603.0417     -145.77942      7860.3341      14.059353      24.351514      22.958827    
      3000   211.74682     -1622.9159      11.796653     -1611.1193      3138.538       7564.3713      13.880633      24.041962      22.666979    
      3500   212.93423     -1623.4465      11.862805     -1611.5837     -692.71619      7663.0504      13.940732      24.146055      22.765119    
      4000   208.49454     -1625.634       11.615465     -1614.0186      6887.2499      7520.9577      13.854028      23.99588       22.623533    
      4500   202.57029     -1628.537       11.285418     -1617.2516     -2308.6031      7465.7901      13.820071      23.937064      22.568081    
      5000   206.4621      -1631.4037      11.502236     -1619.9015      706.64806      7335.0718      13.738937      23.796537      22.43559     
      5500   196.89139     -1632.5925      10.96904      -1621.6235     -724.33857      7259.6171      13.691664      23.714658      22.358394    
      6000   204.77328     -1633.8364      11.408149     -1622.4282     -837.85698      7290.7427      13.711204      23.748502      22.390302    
      6500   199.15966     -1634.5884      11.095408     -1623.4929      2129.9545      7217.8613      13.665363      23.669103      22.315445    
      7000   200.39133     -1635.2118      11.164026     -1624.0477     -1535.8654      7234.3531      13.675763      23.687117      22.332428    
      7500   207.51941     -1634.9917      11.561139     -1623.4306     -933.20816      7230.0247      13.673035      23.682392      22.327973    
      8000   200.21888     -1634.3477      11.154419     -1623.1933     -1906.1738      7231.3565      13.673875      23.683846      22.329344    
      8500   184.2621      -1634.1062      10.265449     -1623.8408      1689.1437      7197.5442      13.652529      23.646874      22.294487    
      9000   204.8729      -1634.4794      11.413699     -1623.0657      91.500398      7237.1466      13.677523      23.690165      22.335302    
      9500   187.72368     -1633.8441      10.458297     -1623.3858      2019.0651      7199.2909      13.653634      23.648787      22.29629     
     10000   192.0951      -1634.5099      10.701834     -1623.8081     -4636.0157      7260.9289      13.692489      23.716086      22.359741    
     10500   183.8287      -1634.9965      10.241303     -1624.7552     -288.53549      7201.6206      13.655106      23.651338      22.298695    
     11000   188.01124     -1634.351       10.474317     -1623.8767      252.51071      7187.915       13.646438      23.636324      22.28454     
     11500   198.52354     -1635.2441      11.059969     -1624.1841      2098.4774      7180.1351      13.641513      23.627794      22.276497    
     12000   205.5023      -1636.3037      11.448764     -1624.8549      1176.9149      7197.9253      13.65277       23.647292      22.29488     
     12500   200.80745     -1637.4235      11.187208     -1626.2363      1560.1702      7183.8135      13.643842      23.631828      22.280301    
     13000   205.32514     -1637.3022      11.438894     -1625.8633     -78.88838       7180.8626      13.641974      23.628592      22.27725     
     13500   194.70971     -1637.4203      10.847496     -1626.5728     -5449.6685      7221.4779      13.667645      23.673056      22.319171    
     14000   198.45998     -1640.2458      11.056428     -1629.1894      277.01819      7124.0813      13.605921      23.566147      22.218377    
     14500   198.38841     -1642.768       11.052441     -1631.7156      2150.8612      7081.5315      13.578779      23.519136      22.174054    
     15000   195.69066     -1642.5494      10.902146     -1631.6472     -743.38537      7093.5707      13.58647       23.532456      22.186613    
     15500   215.65582     -1642.8893      12.014428     -1630.8749     -1178.9945      7139.4913      13.615725      23.583127      22.234385    
     16000   209.45453     -1644.5208      11.668947     -1632.8518      1458.8207      7051.894       13.55981       23.486279      22.143077    
     16500   202.96041     -1643.5277      11.307152     -1632.2206      5011.212       7024.3593      13.542138      23.455671      22.114219    
     17000   204.36259     -1643.2636      11.385269     -1631.8783     -2328.1756      7088.1294      13.582995      23.526438      22.180938    
     17500   201.77708     -1644.1047      11.241227     -1632.8635     -855.08604      7067.4998      13.569805      23.503592      22.159399    
     18000   197.45529     -1644.7407      11.000456     -1633.7402      314.70499      7076.7988      13.575754      23.513895      22.169113    
     18500   205.19576     -1644.928       11.431686     -1633.4964     -673.55523      7120.3935      13.603573      23.56208       22.214542    
     19000   199.47177     -1644.183       11.112796     -1633.0702      2792.9447      7074.3357      13.574179      23.511167      22.166541    
     19500   196.8713      -1644.7831      10.967921     -1633.8152      3974.3742      7040.5575      13.55254       23.473687      22.131204    
     20000   185.25472     -1644.5593      10.320748     -1634.2386     -1322.8222      7101.0811      13.591263      23.540759      22.19444     
Loop time of 367.456 on 8 procs for 20000 steps with 432 atoms

Performance: 9.405 ns/day, 2.552 hours/ns, 54.428 timesteps/s, 23.513 katom-step/s
92.5% CPU use with 1 MPI tasks x 8 OpenMP threads

MPI task timing breakdown:
Section |  min time  |  avg time  |  max time  |%varavg| %total
---------------------------------------------------------------
Pair    | 327.55     | 327.55     | 327.55     |   0.0 | 89.14
Neigh   | 0.035655   | 0.035655   | 0.035655   |   0.0 |  0.01
Comm    | 0.49728    | 0.49728    | 0.49728    |   0.0 |  0.14
Output  | 0.004521   | 0.004521   | 0.004521   |   0.0 |  0.00
Modify  | 39.272     | 39.272     | 39.272     |   0.0 | 10.69
Other   |            | 0.09521    |            |       |  0.03

Nlocal:            432 ave         432 max         432 min
Histogram: 1 0 0 0 0 0 0 0 0 0
Nghost:           2391 ave        2391 max        2391 min
Histogram: 1 0 0 0 0 0 0 0 0 0
Neighs:          28641 ave       28641 max       28641 min
Histogram: 1 0 0 0 0 0 0 0 0 0
FullNghs:        57282 ave       57282 max       57282 min
Histogram: 1 0 0 0 0 0 0 0 0 0

Total # of neighbors = 57282
Ave neighs/atom = 132.59722
Neighbor list builds = 35
Dangerous builds = 0
=== STAGE 3: NPT Production at 200 K ===
No /omp style for force computation currently active
Setting up Verlet run ...
  Unit style    : metal
  Current step  : 0
  Time step     : 0.001
Per MPI rank memory allocation (min/avg/max) = 18.66 | 18.66 | 18.66 Mbytes
   Step          Temp          PotEng         KinEng         TotEng         Press          Volume           Lx             Ly             Lz      
         0   185.25472     -1644.5593      10.320748     -1634.2386     -1322.8222      7101.0811      13.591263      23.540759      22.19444     
       500   200.11554     -1644.8247      11.148661     -1633.6761      3763.0205      7093.6596      13.586527      23.532555      22.186705    
      1000   195.36163     -1644.4435      10.883815     -1633.5597     -5499.1024      7120.8057      13.603836      23.562535      22.214971    
      1500   182.85403     -1644.5061      10.187003     -1634.3191      628.62649      7055.6979      13.562247      23.490502      22.147057    
      2000   207.28134     -1644.8087      11.547876     -1633.2608     -878.68806      7097.6869      13.589097      23.537007      22.190903    
      2500   189.77574     -1644.8256      10.57262      -1634.253      -1619.9794      7114.7128      13.599955      23.555812      22.208633    
      3000   200.56303     -1645.2295      11.173592     -1634.056      -1352.7502      7075.5782      13.574973      23.512543      22.167838    
      3500   207.31623     -1644.8173      11.54982      -1633.2675     -1820.6333      7080.6187      13.578196      23.518125      22.173101    
      4000   206.45992     -1644.2209      11.502114     -1632.7187      547.43786      7070.8274      13.571934      23.50728       22.162876    
      4500   192.25366     -1645.732       10.710667     -1635.0214      117.84005      7060.4184      13.565271      23.495739      22.151995    
      5000   197.7565      -1645.3058      11.017237     -1634.2885     -2990.2774      7107.1085      13.595108      23.547417      22.200718    
      5500   203.3261      -1645.5757      11.327525     -1634.2482      2996.1456      7025.1952      13.542675      23.456602      22.115096    
      6000   208.79575     -1646.7778      11.632246     -1635.1455      1407.1694      7010.0371      13.532928      23.439719      22.099179    
      6500   201.07172     -1645.6596      11.201931     -1634.4576     -2043.6859      7068.8248      13.570653      23.50506       22.160783    
      7000   203.96184     -1645.1713      11.362943     -1633.8084     -175.76786      7061.6824      13.566081      23.497141      22.153317    
      7500   194.12732     -1646.2252      10.815051     -1635.4101     -1298.2832      7044.7479      13.555228      23.478343      22.135594    
      8000   192.47175     -1646.46        10.722817     -1635.7371      130.46547      7037.3339      13.550471      23.470104      22.127826    
      8500   195.61017     -1646.3589      10.897662     -1635.4612     -2241.3407      7075.471       13.574905      23.512425      22.167726    
      9000   211.05076     -1646.6156      11.757875     -1634.8577     -3448.304       7081.5781      13.578809      23.519187      22.174102    
      9500   205.87895     -1645.9466      11.469747     -1634.4768     -4418.6274      7102.0894      13.591907      23.541873      22.195491    
     10000   190.41284     -1646.2065      10.608113     -1635.5984     -775.51942      7056.0476      13.562471      23.49089       22.147423    
     10500   191.64973     -1646.9704      10.677021     -1636.2934     -2290.9901      7093.4832      13.586414      23.53236       22.186521    
     11000   182.64718     -1647.0831      10.175479     -1636.9077     -1601.3472      7081.7631      13.578927      23.519392      22.174296    
     11500   195.62694     -1647.3418      10.898596     -1636.4432     -1343.0958      7065.1866      13.568324      23.501027      22.156981    
     12000   194.83228     -1646.5561      10.854325     -1635.7017      975.42684      7049.8118      13.558475      23.483968      22.140897    
     12500   205.19269     -1647.0816      11.431515     -1635.6501      7005.7144      7048.8172      13.557837      23.482863      22.139856    
     13000   196.00482     -1647.7978      10.919649     -1636.8782     -2629.8538      7088.9996      13.583551      23.527401      22.181846    
     13500   203.00481     -1647.2013      11.309626     -1635.8917      4765.6216      7027.4465      13.544122      23.459107      22.117458    
     14000   188.00344     -1647.2324      10.473883     -1636.7586     -3036.9191      7051.4309      13.559513      23.485765      22.142592    
     14500   200.42199     -1648.3937      11.165734     -1637.2279     -320.8683       7041.7819      13.553325      23.475048      22.132487    
     15000   186.46791     -1647.314       10.388337     -1636.9257     -829.23755      7041.8157      13.553347      23.475085      22.132523    
     15500   195.01039     -1647.8204      10.864248     -1636.9561      862.68422      7035.4417      13.549256      23.468         22.125843    
     16000   195.94456     -1647.4273      10.916291     -1636.511      -1035.2316      7070.8116      13.571924      23.507262      22.162859    
     16500   187.59597     -1647.8691      10.451182     -1637.4179     -2454.1205      7052.7436      13.560354      23.487222      22.143966    
     17000   191.34827     -1647.3885      10.660227     -1636.7282      758.06494      7069.4516      13.571054      23.505755      22.161438    
     17500   204.68289     -1647.8225      11.403114     -1636.4194     -1213.3407      7051.3897      13.559486      23.485719      22.142549    
     18000   197.74589     -1647.5788      11.016645     -1636.5622     -580.30557      7075.5089      13.574929      23.512466      22.167766    
     18500   205.23354     -1648.1916      11.433791     -1636.7578      455.18751      7041.4788      13.553131      23.474711      22.13217     
     19000   209.36118     -1647.7679      11.663746     -1636.1042      790.13295      7032.0909      13.547105      23.464274      22.12233     
     19500   212.33632     -1648.1959      11.829495     -1636.3664      2383.108       7036.0433      13.549642      23.468669      22.126474    
     20000   192.41534     -1649.0458      10.719675     -1638.3261     -655.30131      7033.6909      13.548132      23.466053      22.124007    
     20500   196.8047      -1648.2074      10.964211     -1637.2432     -4068.846       7058.4956      13.56404       23.493606      22.149984    
     21000   196.04899     -1647.5452      10.922109     -1636.6231      1471.8658      6989.4551      13.519671      23.416756      22.07753     
     21500   203.11399     -1647.4479      11.315708     -1636.1322     -329.27242      7034.9633      13.548949      23.467468      22.125341    
     22000   205.5296      -1647.3778      11.450284     -1635.9275     -1693.3469      7004.3737      13.529283      23.433405      22.093226    
     22500   205.57006     -1648.5603      11.452539     -1637.1078      212.84111      7049.2706      13.558128      23.483367      22.14033     
     23000   198.59822     -1648.566       11.06413      -1637.5018      2144.9988      6972.4062      13.508669      23.397701      22.059564    
     23500   196.51003     -1648.3079      10.947794     -1637.3601     -619.15413      7000.7517      13.52695       23.429365      22.089417    
     24000   216.94578     -1649.6481      12.086293     -1637.5618     -1781.7166      6995.5138      13.523576      23.42352       22.083907    
     24500   194.35785     -1649.3261      10.827894     -1638.4982     -802.51847      6985.662       13.517224      23.41252       22.073535    
     25000   208.30506     -1650.282       11.604909     -1638.6771     -2974.508       6973.6768      13.50949       23.399122      22.060904    
     25500   219.25117     -1650.0766      12.214729     -1637.8618      3533.075       6940.5242      13.488048      23.361984      22.02589     
     26000   198.82585     -1650.7432      11.076811     -1639.6664      146.69543      6964.1921      13.503362      23.388509      22.050898    
     26500   191.9289      -1650.6484      10.692574     -1639.9558      1126.1037      6943.3098      13.489852      23.365109      22.028836    
     27000   188.24491     -1650.9115      10.487335     -1640.4241     -2189.3315      6975.9529      13.510959      23.401668      22.063304    
     27500   195.36847     -1650.2918      10.884197     -1639.4076     -286.30515      6977.8377      13.512176      23.403775      22.065291    
     28000   197.89894     -1650.3234      11.025172     -1639.2982      2285.933       6970.0845      13.50717       23.395104      22.057115    
     28500   193.74165     -1650.9126      10.793565     -1640.119      -158.66596      7004.8236      13.529572      23.433907      22.093699    
     29000   184.97619     -1650.5715      10.305231     -1640.2663     -1790.6843      6996.1334      13.523975      23.424212      22.084559    
     29500   187.91704     -1650.4859      10.469069     -1640.0168     -1401.9228      7005.3         13.529879      23.434438      22.0942      
     30000   212.74948     -1649.4298      11.852513     -1637.5773     -3914.9653      7043.1598      13.554209      23.476579      22.133931    
     30500   194.62485     -1650.267       10.842769     -1639.4243     -4191.5788      7007.4409      13.531257      23.436825      22.09645     
     31000   205.48863     -1651.0642      11.448002     -1639.6162      778.54217      6986.3729      13.517683      23.413314      22.074284    
     31500   198.00703     -1651.3041      11.031194     -1640.2729     -307.57612      6976.3149      13.511193      23.402073      22.063686    
     32000   213.87416     -1651.2355      11.915169     -1639.3203      1533.1928      6970.9226      13.507711      23.396041      22.057999    
     32500   207.68586     -1650.9658      11.570412     -1639.3954     -1734.8457      7003.2824      13.52858       23.432188      22.092079    
     33000   203.67482     -1650.0213      11.346953     -1638.6744      3140.7293      6989.4221      13.519649      23.416719      22.077495    
     33500   192.1507      -1650.2875      10.704931     -1639.5826     -658.51486      6979.671       13.513359      23.405825      22.067223    
     34000   201.84552     -1651.0102      11.24504      -1639.7652      2813.1849      6986.351       13.517669      23.413289      22.074261    
     34500   211.67602     -1649.9453      11.792709     -1638.1526     -13.211846      7005.6838      13.530126      23.434866      22.094604    
     35000   204.89618     -1650.0143      11.414996     -1638.5993      397.74719      6999.4611      13.526119      23.427925      22.08806     
     35500   195.7686      -1650.1875      10.906488     -1639.281       1723.6732      6979.3868      13.513176      23.405507      22.066924    
     36000   192.45359     -1650.6983      10.721806     -1639.9765     -2874.6591      7014.5338      13.535821      23.44473       22.103903    
     36500   201.1419      -1650.635       11.205841     -1639.4292      2534.6223      6955.9244      13.498016      23.37925       22.042169    
     37000   195.76473     -1650.6869      10.906273     -1639.7807     -2167.9769      6984.8977      13.516731      23.411666      22.07273     
     37500   199.70108     -1651.3926      11.125571     -1640.267       3358.0321      6936.3097      13.485317      23.357254      22.021431    
     38000   196.66553     -1650.5043      10.956458     -1639.5479      602.1916       6972.5578      13.508767      23.397871      22.059724    
     38500   192.86171     -1650.3976      10.744543     -1639.6531      1360.5206      6952.0507      13.49551       23.37491       22.038076    
     39000   202.66999     -1650.1602      11.290973     -1638.8692      236.98011      7013.9855      13.535468      23.444119      22.103327    
     39500   196.24844     -1650.8864      10.933221     -1639.9532      3238.4398      6957.8438      13.499258      23.381401      22.044196    
     40000   198.24672     -1651.2657      11.044547     -1640.2211      139.85419      6999.1469      13.525917      23.427575      22.087729    
     40500   191.30959     -1649.9156      10.658072     -1639.2575      3298.4156      6973.4203      13.509324      23.398836      22.060634    
     41000   211.08665     -1650.5285      11.759874     -1638.7686     -487.22609      6975.5435      13.510695      23.40121       22.062872    
     41500   214.7399      -1650.9375      11.963401     -1638.9741     -471.84262      6997.1666      13.524641      23.425365      22.085646    
     42000   195.16222     -1650.3269      10.872706     -1639.4542      908.3779       6969.0574      13.506506      23.393955      22.056032    
     42500   195.93791     -1651.0888      10.915921     -1640.1729     -383.81038      6991.0522      13.5207        23.41854       22.079211    
     43000   202.50111     -1650.8489      11.281564     -1639.5673     -2741.0887      6979.7652      13.51342       23.40593       22.067322    
     43500   201.76218     -1650.0276      11.240397     -1638.7872     -4310.2522      7007.1928      13.531098      23.436548      22.09619     
     44000   198.47378     -1650.5897      11.057197     -1639.5325      13.087469      6997.7215      13.524998      23.425984      22.08623     
     44500   189.80396     -1651.6234      10.574192     -1641.0492     -3424.1776      7000.2689      13.526639      23.428827      22.08891     
     45000   193.75184     -1649.8363      10.794132     -1639.0421     -1786.12        6992.3943      13.521565      23.420038      22.080624    
     45500   195.78816     -1649.944       10.907578     -1639.0364      2274.0214      6980.7133      13.514032      23.40699       22.068321    
     46000   184.68165     -1651.2105      10.288822     -1640.9217     -2380.4993      6996.9652      13.524511      23.42514       22.085434    
     46500   198.54432     -1650.9419      11.061127     -1639.8808      770.57295      7004.8827      13.52961       23.433973      22.093761    
     47000   208.41796     -1651.1203      11.611198     -1639.5091      2662.6469      6974.1629      13.509804      23.399666      22.061417    
     47500   219.03816     -1651.0266      12.202862     -1638.8238     -2546.9185      7004.0372      13.529066      23.43303       22.092872    
     48000   193.83714     -1650.446       10.798884     -1639.6471     -2432.9629      7007.0741      13.531021      23.436416      22.096065    
     48500   199.73333     -1651.4958      11.127368     -1640.3684     -2119.0542      6976.011       13.510997      23.401733      22.063365    
     49000   193.51634     -1651.3602      10.781012     -1640.5792      1467.896       6979.3446      13.513149      23.40546       22.066879    
     49500   189.33299     -1650.3582      10.547953     -1639.8103     -83.434253      6998.341       13.525397      23.426676      22.086882    
     50000   194.8434      -1650.689       10.854945     -1639.834      -672.80939      7002.4791      13.528063      23.431292      22.091234    
Loop time of 810.163 on 8 procs for 50000 steps with 432 atoms

Performance: 5.332 ns/day, 4.501 hours/ns, 61.716 timesteps/s, 26.661 katom-step/s
93.4% CPU use with 1 MPI tasks x 8 OpenMP threads

MPI task timing breakdown:
Section |  min time  |  avg time  |  max time  |%varavg| %total
---------------------------------------------------------------
Pair    | 723.86     | 723.86     | 723.86     |   0.0 | 89.35
Neigh   | 0.007929   | 0.007929   | 0.007929   |   0.0 |  0.00
Comm    | 0.95208    | 0.95208    | 0.95208    |   0.0 |  0.12
Output  | 0.010032   | 0.010032   | 0.010032   |   0.0 |  0.00
Modify  | 85.15      | 85.15      | 85.15      |   0.0 | 10.51
Other   |            | 0.1839     |            |       |  0.02

Nlocal:            432 ave         432 max         432 min
Histogram: 1 0 0 0 0 0 0 0 0 0
Nghost:           2397 ave        2397 max        2397 min
Histogram: 1 0 0 0 0 0 0 0 0 0
Neighs:          29295 ave       29295 max       29295 min
Histogram: 1 0 0 0 0 0 0 0 0 0
FullNghs:        58590 ave       58590 max       58590 min
Histogram: 1 0 0 0 0 0 0 0 0 0

Total # of neighbors = 58590
Ave neighs/atom = 135.625
Neighbor list builds = 7
Dangerous builds = 0

=== FINAL RESULTS: HCP at 200 K ===
Atoms: 432 | PE/atom: -3.8212932276013 eV/atom
WARNING: Detected non-ASCII characters in input. Will try to continue by replacing with ASCII equivalents where known. (src/input.cpp:479)
Volume: 7002.47913311919 …³ | Area: 316.979989947284 ²
==========================================
HCP 200 432 -3.8212932276013 7002.47913311919 13.528062778957 23.4312920575996 22.0912340059188 316.979989947284
Simulation complete!
Total wall time: 0:19:42
