LAMMPS (10 Sep 2025)
  using 8 OpenMP thread(s) per MPI task
Loaded 1 plugins from C:\Users\harsh\Downloads\LAMMPS 64-bit 10Sep2025\plugins
using multi-threaded neighbor list subroutines
Reading data file ...
  orthogonal box = (0 0 0) to (16.705398 28.934598 27.2798)
  1 by 1 by 1 MPI processor grid
  reading atoms ...
  432 atoms
  read_data CPU = 0.004 seconds
=== STAGE 1: Energy Minimization ===
Switching to 'neigh_modify every 1 delay 0 check yes' setting during minimization
No /omp style for force computation currently active
Neighbor list info ...
  update: every = 1 steps, delay = 0 steps, check = yes
  max neighbors/atom: 4000, page size: 100000
  master list distance cutoff = 8
  ghost atom cutoff = 8
  binsize = 4, bins = 5 8 7
  2 neighbor lists, perpetual/occasional/extra = 2 0 0
  (1) pair meam, perpetual
      attributes: full, newton on, omp
      pair build: full/bin/atomonly/omp
      stencil: full/bin/3d
      bin: standard
  (2) pair meam, perpetual, half/full from (1)
      attributes: half, newton on, omp
      pair build: halffull/newton/omp
      stencil: none
      bin: none
Setting up cg style minimization ...
  Unit style    : metal
  Current step  : 0
Per MPI rank memory allocation (min/avg/max) = 19.27 | 19.27 | 19.27 Mbytes
   Step          Temp          PotEng         KinEng         TotEng         Press          Volume           Lx             Ly             Lz      
         0   0             -1089.186       0             -1089.186      -82291.631      13186.072      16.705398      28.934598      27.2798      
       143   0             -1470.5056      0             -1470.5056     -28569.07       13186.072      16.705398      28.934598      27.2798      
Loop time of 1.2126 on 8 procs for 143 steps with 432 atoms

99.2% CPU use with 1 MPI tasks x 8 OpenMP threads

Minimization stats:
  Stopping criterion = energy tolerance
  Energy initial, next-to-last, final = 
     -1089.18601553456  -1470.50551980247  -1470.50556018378
  Force two-norm initial, final = 11.501571 4.5949336
  Force max component initial, final = 1.3540431 2.0663849
  Final line search alpha, max atom move = 0.071150886 0.14702512
  Iterations, force evaluations = 143 234

MPI task timing breakdown:
Section |  min time  |  avg time  |  max time  |%varavg| %total
---------------------------------------------------------------
Pair    | 1.1574     | 1.1574     | 1.1574     |   0.0 | 95.45
Neigh   | 0.00598    | 0.00598    | 0.00598    |   0.0 |  0.49
Comm    | 0.002554   | 0.002554   | 0.002554   |   0.0 |  0.21
Output  | 0          | 0          | 0          |   0.0 |  0.00
Modify  | 0.040922   | 0.040922   | 0.040922   |   0.0 |  3.37
Other   |            | 0.005728   |            |       |  0.47

Nlocal:            432 ave         432 max         432 min
Histogram: 1 0 0 0 0 0 0 0 0 0
Nghost:           1738 ave        1738 max        1738 min
Histogram: 1 0 0 0 0 0 0 0 0 0
Neighs:          14877 ave       14877 max       14877 min
Histogram: 1 0 0 0 0 0 0 0 0 0
FullNghs:        29754 ave       29754 max       29754 min
Histogram: 1 0 0 0 0 0 0 0 0 0

Total # of neighbors = 29754
Ave neighs/atom = 68.875
Neighbor list builds = 9
Dangerous builds = 0
Minimized PE/atom: -3.40394805598098 eV/atom
=== STAGE 2: NPT Equilibration at 200 K ===
No /omp style for force computation currently active
Setting up Verlet run ...
  Unit style    : metal
  Current step  : 0
  Time step     : 0.002
Per MPI rank memory allocation (min/avg/max) = 18.15 | 18.15 | 18.15 Mbytes
   Step          Temp          PotEng         KinEng         TotEng         Press          Volume           Lx             Ly             Lz      
         0   200           -1470.5056      11.142224     -1459.3633     -27666.511      13186.072      16.705398      28.934598      27.2798      
       500   383.4468      -1557.3312      21.362252     -1535.9689     -2570.3692      8518.3563      14.441211      25.012911      23.582398    
      1000   266.13713     -1597.3107      14.826798     -1582.4839     -2851.0305      7539.6039      13.865467      24.015694      22.642213    
      1500   184.61192     -1616.6619      10.284937     -1606.3769     -2219.6513      7127.9683      13.608395      23.570432      22.222417    
      2000   215.26559     -1624.3021      11.992688     -1612.3094      217.11994      6930.5301      13.48157       23.350765      22.015312    
      2500   214.26992     -1627.6744      11.937218     -1615.7372      2600.0387      6832.4192      13.417651      23.240054      21.910933    
      3000   196.64386     -1631.9138      10.95525      -1620.9586      9.906096       6781.4684      13.384215      23.182141      21.856332    
      3500   177.57006     -1637.6639      9.8926272     -1627.7713     -3723.4508      6619.4729      13.276781      22.99606       21.680893    
      4000   197.86673     -1639.9931      11.023378     -1628.9698     -758.63887      6598.4145      13.262687      22.971648      21.657878    
      4500   211.36393     -1640.5691      11.775322     -1628.7937      211.804        6592.8095      13.258931      22.965142      21.651744    
      5000   202.36404     -1643.5374      11.273928     -1632.2634     -1387.7915      6565.1769      13.240381      22.933013      21.621452    
      5500   195.42034     -1645.54        10.887086     -1634.6529     -1377.3784      6479.3884      13.182456      22.832684      21.526861    
      6000   200.13682     -1646.4877      11.149847     -1635.3378     -2883.099       6478.1106      13.18159       22.831183      21.525446    
      6500   201.60385     -1647.9014      11.231577     -1636.6698      1157.1795      6455.3336      13.166123      22.804394      21.500188    
      7000   208.34775     -1649.6527      11.607287     -1638.0454      1438.7473      6405.5744      13.132206      22.745648      21.444803    
      7500   194.73794     -1651.1617      10.849069     -1640.3126      452.65436      6370.2696      13.108035      22.703783      21.405332    
      8000   197.41582     -1652.4141      10.998257     -1641.4158      2531.8471      6298.9098      13.058906      22.618689      21.325104    
      8500   208.21847     -1652.8701      11.600084     -1641.27        311.70252      6312.6559      13.068399      22.63513       21.340606    
      9000   203.79248     -1655.5483      11.353508     -1644.1947     -2622.5614      6342.814       13.089177      22.671119      21.374536    
      9500   190.32821     -1657.5479      10.603398     -1646.9445     -2493.7275      6283.0018      13.047903      22.599632      21.307137    
     10000   197.26799     -1658.4159      10.990021     -1647.4259      542.3267       6246.9592      13.022906      22.556334      21.266316    
     10500   198.66504     -1660.8167      11.067852     -1649.7489      1912.7956      6214.0192      12.999975      22.516618      21.228871    
     11000   209.11444     -1660.2856      11.65         -1648.6356      1869.5055      6223.2932      13.006439      22.527814      21.239427    
     11500   200.00245     -1660.4004      11.142361     -1649.2581     -65.546238      6214.6622      13.000424      22.517395      21.229603    
     12000   194.09383     -1661.516       10.813185     -1650.7028     -2229.216       6217.9867      13.002742      22.521409      21.233388    
     12500   192.21874     -1661.2288      10.708722     -1650.5201      4273.6528      6158.6733      12.961265      22.44957       21.165657    
     13000   204.50532     -1662.6004      11.393221     -1651.2072     -2161.0555      6186.1921      12.980541      22.482957      21.197135    
     13500   192.58427     -1662.6096      10.729086     -1651.8805     -998.09219      6189.858       12.983105      22.487397      21.201321    
     14000   201.75035     -1662.3051      11.239739     -1651.0654      2267.8631      6166.7516      12.96693       22.459381      21.174907    
     14500   207.98907     -1662.2023      11.587305     -1650.615      -4437.1286      6192.4707      12.984931      22.490561      21.204304    
     15000   196.11476     -1661.0762      10.925774     -1650.1504      2651.2098      6149.6628      12.954941      22.438616      21.15533     
     15500   224.62787     -1661.9305      12.514271     -1649.4162      535.52812      6162.6539      12.964057      22.454405      21.170216    
     16000   201.35941     -1662.3203      11.217959     -1651.1023     -513.3385       6157.4252      12.960389      22.448053      21.164227    
     16500   198.87578     -1661.9012      11.079593     -1650.8216     -1092.5993      6188.6871      12.982286      22.485979      21.199984    
     17000   209.34627     -1661.9727      11.662916     -1650.3098      3028.0055      6175.2231      12.972865      22.469661      21.184599    
     17500   204.87562     -1661.7998      11.413851     -1650.3859     -212.61041      6165.5744      12.966104      22.457952      21.17356     
     18000   192.78827     -1661.6946      10.740451     -1650.9541      4119.8272      6147.3732      12.953333      22.435831      21.152704    
     18500   187.07546     -1662.1937      10.422184     -1651.7715      55.48671       6156.2197      12.959544      22.446588      21.162846    
     19000   202.21338     -1662.2631      11.265535     -1650.9976      112.79807      6177.4137      12.974398      22.472317      21.187104    
     19500   208.96971     -1662.2593      11.641937     -1650.6173     -1404.4281      6179.863       12.976113      22.475287      21.189904    
     20000   196.44907     -1662.1957      10.944398     -1651.2513      2826.6045      6169.2367      12.968671      22.462397      21.177751    
Loop time of 265.633 on 8 procs for 20000 steps with 432 atoms

Performance: 13.010 ns/day, 1.845 hours/ns, 75.292 timesteps/s, 32.526 katom-step/s
94.4% CPU use with 1 MPI tasks x 8 OpenMP threads

MPI task timing breakdown:
Section |  min time  |  avg time  |  max time  |%varavg| %total
---------------------------------------------------------------
Pair    | 238.18     | 238.18     | 238.18     |   0.0 | 89.67
Neigh   | 0.027779   | 0.027779   | 0.027779   |   0.0 |  0.01
Comm    | 0.28722    | 0.28722    | 0.28722    |   0.0 |  0.11
Output  | 0.00394    | 0.00394    | 0.00394    |   0.0 |  0.00
Modify  | 27.079     | 27.079     | 27.079     |   0.0 | 10.19
Other   |            | 0.05362    |            |       |  0.02

Nlocal:            432 ave         432 max         432 min
Histogram: 1 0 0 0 0 0 0 0 0 0
Nghost:           2580 ave        2580 max        2580 min
Histogram: 1 0 0 0 0 0 0 0 0 0
Neighs:          31881 ave       31881 max       31881 min
Histogram: 1 0 0 0 0 0 0 0 0 0
FullNghs:        63762 ave       63762 max       63762 min
Histogram: 1 0 0 0 0 0 0 0 0 0

Total # of neighbors = 63762
Ave neighs/atom = 147.59722
Neighbor list builds = 34
Dangerous builds = 0
=== STAGE 3: NPT Production at 200 K ===
No /omp style for force computation currently active
Setting up Verlet run ...
  Unit style    : metal
  Current step  : 0
  Time step     : 0.001
Per MPI rank memory allocation (min/avg/max) = 18.72 | 18.72 | 18.72 Mbytes
   Step          Temp          PotEng         KinEng         TotEng         Press          Volume           Lx             Ly             Lz      
         0   196.44907     -1662.1957      10.944398     -1651.2513      2826.6045      6169.2367      12.968671      22.462397      21.177751    
       500   201.43734     -1662.3555      11.222301     -1651.1332      231.185        6173.8208      12.971883      22.46796       21.182996    
      1000   211.72237     -1661.7512      11.795291     -1649.9559      5645.9441      6140.7694      12.948693      22.427794      21.145127    
      1500   203.29976     -1661.5493      11.326058     -1650.2233      872.47741      6151.1045      12.955953      22.440369      21.156983    
      2000   189.76447     -1663.1909      10.571992     -1652.6189     -2462.7443      6156.086       12.95945       22.446425      21.162693    
      2500   203.41769     -1661.6334      11.332628     -1650.3008     -3119.1993      6172.9652      12.971283      22.466922      21.182017    
      3000   199.8075      -1661.3288      11.1315       -1650.1973      2517.692       6162.8132      12.964169      22.454599      21.170399    
      3500   202.69782     -1662.396       11.292523     -1651.1035      373.27884      6148.0556      12.953812      22.436661      21.153487    
      4000   196.12277     -1662.7516      10.92622      -1651.8253     -1210.0448      6180.7827      12.976757      22.476402      21.190955    
      4500   193.66612     -1661.5757      10.789357     -1650.7864      1952.9545      6156.9161      12.960032      22.447434      21.163644    
      5000   199.81839     -1662.3311      11.132107     -1651.199      -577.27737      6158.1404      12.960891      22.448922      21.165047    
      5500   202.46737     -1661.9713      11.279685     -1650.6917      1715.1321      6153.2879      12.957486      22.443024      21.159486    
      6000   217.68709     -1662.0042      12.127592     -1649.8767     -1068.6257      6183.8036      12.97887       22.480063      21.194407    
      6500   208.67766     -1662.2385      11.625667     -1650.6128      2129.3094      6161.2131      12.963046      22.452655      21.168566    
      7000   203.70971     -1662.8378      11.348897     -1651.4889      994.59443      6144.1159      12.951045      22.431867      21.148967    
      7500   205.73228     -1662.6638      11.461576     -1651.2022      2343.0094      6156.248       12.959563      22.446622      21.162878    
      8000   207.42081     -1661.114       11.555646     -1649.5584      1308.5047      6178.1391      12.974906      22.473197      21.187933    
      8500   196.68404     -1661.9274      10.957489     -1650.9699     -1034.042       6178.7675      12.975346      22.473959      21.188652    
      9000   202.78438     -1662.431       11.297345     -1651.1336      3170.6339      6145.3677      12.951924      22.433391      21.150404    
      9500   182.00876     -1662.0534      10.139913     -1651.9135      404.18579      6160.3478      12.96244       22.451604      21.167575    
     10000   202.49066     -1661.9608      11.280982     -1650.6798     -1374.0542      6186.9599      12.981078      22.483887      21.198012    
     10500   208.36686     -1661.7334      11.608352     -1650.125       13.323493      6168.245       12.967976      22.461194      21.176617    
     11000   197.00609     -1661.4609      10.97543      -1650.4855     -2172.6955      6182.8922      12.978233      22.478959      21.193365    
     11500   198.016       -1662.3078      11.031694     -1651.2761      137.38772      6172.9652      12.971283      22.466922      21.182017    
     12000   194.09295     -1661.9852      10.813136     -1651.1721      1355.1071      6146.5434      12.95275       22.434821      21.151752    
     12500   201.16295     -1661.401       11.207014     -1650.194      -1250.1492      6181.1713      12.977029      22.476873      21.191399    
     13000   200.85062     -1661.3569      11.189613     -1650.1673     -1560.7886      6179.5587      12.9759        22.474918      21.189556    
     13500   212.97541     -1663.014       11.865099     -1651.1489     -666.47689      6167.6443      12.967555      22.460465      21.175929    
     14000   189.28366     -1662.094       10.545205     -1651.5488     -1610.5887      6188.6006      12.982226      22.485874      21.199886    
     14500   191.2142      -1662.7186      10.652758     -1652.0658      237.6185       6166.4655      12.966729      22.459034      21.17458     
     15000   203.94839     -1662.2006      11.362194     -1650.8385      927.04848      6174.9776      12.972693      22.469363      21.184318    
     15500   206.85167     -1663.2938      11.523939     -1651.7699     -643.85378      6179.9652      12.976184      22.475411      21.190021    
     16000   201.21936     -1662.8888      11.210156     -1651.6786     -2436.9686      6163.6645      12.964766      22.455633      21.171373    
     16500   221.19297     -1661.2846      12.322909     -1648.9617     -5637.5027      6201.4231      12.991186      22.501394      21.214517    
     17000   197.13269     -1662.6506      10.982484     -1651.6681      1173.9055      6182.0679      12.977656      22.47796       21.192424    
     17500   195.86373     -1662.0088      10.911788     -1651.097      -573.06797      6168.5874      12.968216      22.461609      21.177008    
     18000   195.56178     -1661.0151      10.894966     -1650.1201     -1736.0141      6182.9793      12.978294      22.479064      21.193465    
     18500   208.53687     -1661.6785      11.617823     -1650.0607      157.72632      6201.9587      12.99156       22.502041      21.215128    
     19000   190.91665     -1662.1188      10.636181     -1651.4827     -357.38562      6171.184       12.970036      22.464761      21.179979    
     19500   203.96384     -1662.3701      11.363055     -1651.0071      5024.0029      6150.3313      12.95541       22.439429      21.156096    
     20000   212.40269     -1661.8374      11.833192     -1650.0042     -2808.6902      6169.9914      12.9692        22.463313      21.178615    
     20500   205.9415      -1661.7372      11.473232     -1650.2639     -4805.2338      6207.0425      12.995108      22.508188      21.220923    
     21000   198.13951     -1662.6584      11.038575     -1651.6198      34.626595      6170.3428      12.969446      22.46374       21.179017    
     21500   193.4236      -1662.5972      10.775846     -1651.8213     -687.1684       6159.5727      12.961896      22.450662      21.166687    
     22000   193.77922     -1662.8582      10.795658     -1652.0626      1250.7606      6162.7989      12.964159      22.454581      21.170382    
     22500   201.13453     -1662.1259      11.20543      -1650.9205      1484.4641      6158.7439      12.961315      22.449655      21.165738    
     23000   203.98205     -1662.2336      11.364069     -1650.8695      1830.4281      6163.573       12.964701      22.455521      21.171269    
     23500   192.3852      -1662.4242      10.717996     -1651.7062     -2776.1515      6187.7742      12.981648      22.484874      21.198942    
     24000   197.58963     -1662.7969      11.00794      -1651.789       1111.1158      6128.9082      12.940351      22.413345      21.131504    
     24500   199.05162     -1662.5045      11.089389     -1651.4151      2637.5094      6141.3289      12.949086      22.428475      21.145769    
     25000   196.23831     -1661.8991      10.932657     -1650.9665     -1309.6274      6162.7079      12.964095      22.454471      21.170278    
     25500   205.45614     -1661.6801      11.446192     -1650.2339      1032.3078      6173.5424      12.971688      22.467622      21.182677    
     26000   202.8208      -1662.3763      11.299374     -1651.077       1557.3488      6164.5661      12.965398      22.456727      21.172406    
     26500   206.01392     -1662.7711      11.477267     -1651.2939      453.62528      6164.6424      12.965451      22.45682       21.172493    
     27000   210.20565     -1662.1788      11.710793     -1650.468      -2138.612       6188.1252      12.981893      22.485299      21.199343    
     27500   202.10906     -1661.9463      11.259722     -1650.6866      2429.6764      6175.4668      12.973035      22.469956      21.184878    
     28000   205.44568     -1662.283       11.445609     -1650.8374      165.48419      6161.7858      12.963448      22.453351      21.169222    
     28500   188.53289     -1661.9807      10.503379     -1651.4773     -1067.9492      6188.2918      12.98201       22.4855        21.199533    
     29000   205.48738     -1663.278       11.447933     -1651.8301     -2311.7177      6179.2785      12.975704      22.474578      21.189236    
     29500   201.87029     -1662.4142      11.246421     -1651.1678     -1856.1486      6181.0095      12.976915      22.476677      21.191214    
     30000   201.72975     -1661.8678      11.238591     -1650.6292     -326.63965      6192.4136      12.984891      22.490492      21.204239    
     30500   209.71665     -1662.1836      11.68355      -1650.5001      874.04004      6162.4543      12.963917      22.454163      21.169988    
     31000   197.14454     -1661.4636      10.983144     -1650.4805      476.45525      6153.3864      12.957555      22.443144      21.159599    
     31500   206.34786     -1662.794       11.495871     -1651.2982      1945.4686      6155.9259      12.959337      22.446231      21.162509    
     32000   186.84039     -1662.2855      10.409088     -1651.8764     -552.3878       6179.0951      12.975576      22.474356      21.189026    
     32500   199.03726     -1661.9533      11.088589     -1650.8647      495.37107      6167.1482      12.967208      22.459862      21.175361    
     33000   202.4016      -1661.7887      11.276021     -1650.5127      653.0154       6160.6864      12.962677      22.452015      21.167963    
     33500   203.50132     -1662.3937      11.337287     -1651.0564      80.713457      6184.521       12.979372      22.480932      21.195226    
     34000   199.22879     -1662.8835      11.09926      -1651.7842      90.678835      6160.6821      12.962674      22.45201       21.167958    
     34500   202.24961     -1662.5438      11.267553     -1651.2763      413.78455      6170.1693      12.969325      22.463529      21.178818    
     35000   193.08511     -1661.5025      10.756988     -1650.7455      568.63124      6171.7545      12.970435      22.465453      21.180632    
     35500   198.36603     -1662.4583      11.051194     -1651.4071     -2554.2809      6196.2198      12.987551      22.495099      21.208582    
     36000   192.47036     -1661.9681      10.72274      -1651.2454     -1538.7321      6177.2258      12.974267      22.472089      21.186889    
     36500   197.03001     -1661.4782      10.976763     -1650.5015     -2744.07        6202.6333      12.992031      22.502857      21.215897    
     37000   195.58888     -1661.6675      10.896476     -1650.7711      120.98686      6184.4969      12.979355      22.480903      21.195199    
     37500   197.30973     -1662.7751      10.992347     -1651.7828      599.35915      6175.4396      12.973016      22.469923      21.184847    
     38000   184.352       -1662.2213      10.270457     -1651.9508     -1735.7904      6186.899       12.981036      22.483813      21.197943    
     38500   197.48519     -1661.88        11.002121     -1650.8779     -1634.7674      6200.0871      12.990253      22.499778      21.212994    
     39000   201.50196     -1661.804       11.2259       -1650.5781      490.40064      6167.3136      12.967324      22.460063      21.175551    
     39500   194.89203     -1662.1644      10.857654     -1651.3068     -1223.2404      6182.5921      12.978023      22.478595      21.193023    
     40000   188.65557     -1662.0693      10.510214     -1651.5591     -2471.1225      6175.532       12.973081      22.470035      21.184952    
     40500   191.82578     -1661.6222      10.686829     -1650.9354     -1177.4643      6181.4109      12.977196      22.477163      21.191673    
     41000   214.1824      -1662.445       11.932342     -1650.5127      193.74477      6151.1091      12.955956      22.440375      21.156988    
     41500   201.64814     -1662.4945      11.234044     -1651.2605      1325.8268      6153.713       12.957784      22.443541      21.159973    
     42000   209.31781     -1662.3682      11.66133      -1650.7068      549.34713      6155.852       12.959286      22.446141      21.162425    
     42500   203.34721     -1661.3812      11.328701     -1650.0525     -2461.1475      6189.5503      12.98289       22.487025      21.20097     
     43000   208.38695     -1662.3761      11.609471     -1650.7666      1938.7536      6157.812       12.960661      22.448523      21.16467     
     43500   201.4385      -1662.8068      11.222365     -1651.5845      3004.9537      6130.1096      12.941196      22.414809      21.132885    
     44000   202.00865     -1662.221       11.254128     -1650.9669     -104.3881       6152.2087      12.956728      22.441712      21.158249    
     44500   210.04018     -1662.2112      11.701574     -1650.5096      720.9331       6159.8731      12.962107      22.451027      21.167032    
     45000   200.02368     -1661.4659      11.143544     -1650.3223      673.14329      6168.2349      12.967969      22.461182      21.176605    
     45500   189.67143     -1661.3419      10.566808     -1650.7751      395.05665      6160.7171      12.962699      22.452053      21.167998    
     46000   199.82401     -1662.3065      11.13242      -1651.1741      1934.4159      6144.8618      12.951569      22.432775      21.149823    
     46500   198.71351     -1662.1365      11.070553     -1651.0659      1665.0823      6152.2984      12.956791      22.441821      21.158352    
     47000   193.19585     -1661.6438      10.763157     -1650.8807     -1430.1245      6179.8133      12.976078      22.475227      21.189847    
     47500   208.87554     -1661.3167      11.636691     -1649.68        4446.797       6150.1069      12.955253      22.439156      21.155839    
     48000   215.16772     -1662.6795      11.987235     -1650.6922      743.90218      6156.7101      12.959888      22.447184      21.163408    
     48500   200.56073     -1662.6861      11.173464     -1651.5126      768.65113      6156.1543      12.959498      22.446508      21.162771    
     49000   193.59453     -1662.5036      10.785369     -1651.7182      1147.7479      6150.281       12.955375      22.439368      21.156039    
     49500   197.76042     -1662.0407      11.017455     -1651.0233      2134.1249      6152.9347      12.957238      22.442595      21.159081    
     50000   210.66813     -1662.3005      11.736558     -1650.564       2819.6438      6152.8768      12.957197      22.442524      21.159015    
Loop time of 570.528 on 8 procs for 50000 steps with 432 atoms

Performance: 7.572 ns/day, 3.170 hours/ns, 87.638 timesteps/s, 37.860 katom-step/s
93.1% CPU use with 1 MPI tasks x 8 OpenMP threads

MPI task timing breakdown:
Section |  min time  |  avg time  |  max time  |%varavg| %total
---------------------------------------------------------------
Pair    | 506.24     | 506.24     | 506.24     |   0.0 | 88.73
Neigh   | 0          | 0          | 0          |   0.0 |  0.00
Comm    | 0.54516    | 0.54516    | 0.54516    |   0.0 |  0.10
Output  | 0.007113   | 0.007113   | 0.007113   |   0.0 |  0.00
Modify  | 63.633     | 63.633     | 63.633     |   0.0 | 11.15
Other   |            | 0.1021     |            |       |  0.02

Nlocal:            432 ave         432 max         432 min
Histogram: 1 0 0 0 0 0 0 0 0 0
Nghost:           2554 ave        2554 max        2554 min
Histogram: 1 0 0 0 0 0 0 0 0 0
Neighs:          32081 ave       32081 max       32081 min
Histogram: 1 0 0 0 0 0 0 0 0 0
FullNghs:        64162 ave       64162 max       64162 min
Histogram: 1 0 0 0 0 0 0 0 0 0

Total # of neighbors = 64162
Ave neighs/atom = 148.52315
Neighbor list builds = 0
Dangerous builds = 0

=== FINAL RESULTS: DHCP at 200 K ===
Atoms: 432 | PE/atom: -3.84746344090974 eV/atom
WARNING: Detected non-ASCII characters in input. Will try to continue by replacing with ASCII equivalents where known. (src/input.cpp:479)
Volume: 6152.87675150824 …³ | Area: 290.792215047172 ²
==========================================
DHCP 200 432 -3.84746344090974 6152.87675150824 12.9571973690712 22.4425241635427 21.1590146954592 290.792215047172
Simulation complete!
Total wall time: 0:13:57
