LAMMPS (10 Sep 2025)
  using 8 OpenMP thread(s) per MPI task
Loaded 1 plugins from C:\Users\harsh\Downloads\LAMMPS 64-bit 10Sep2025\plugins
using multi-threaded neighbor list subroutines
Reading data file ...
  orthogonal box = (0 0 0) to (16.705398 28.934598 27.2798)
  1 by 1 by 1 MPI processor grid
  reading atoms ...
  432 atoms
  read_data CPU = 0.013 seconds
=== STAGE 1: Energy Minimization ===
Switching to 'neigh_modify every 1 delay 0 check yes' setting during minimization
No /omp style for force computation currently active
Neighbor list info ...
  update: every = 1 steps, delay = 0 steps, check = yes
  max neighbors/atom: 4000, page size: 100000
  master list distance cutoff = 8
  ghost atom cutoff = 8
  binsize = 4, bins = 5 8 7
  2 neighbor lists, perpetual/occasional/extra = 2 0 0
  (1) pair meam, perpetual
      attributes: full, newton on, omp
      pair build: full/bin/atomonly/omp
      stencil: full/bin/3d
      bin: standard
  (2) pair meam, perpetual, half/full from (1)
      attributes: half, newton on, omp
      pair build: halffull/newton/omp
      stencil: none
      bin: none
Setting up cg style minimization ...
  Unit style    : metal
  Current step  : 0
Per MPI rank memory allocation (min/avg/max) = 19.27 | 19.27 | 19.27 Mbytes
   Step          Temp          PotEng         KinEng         TotEng         Press          Volume           Lx             Ly             Lz      
         0   0             -1089.186       0             -1089.186      -82291.631      13186.072      16.705398      28.934598      27.2798      
       143   0             -1470.5056      0             -1470.5056     -28569.07       13186.072      16.705398      28.934598      27.2798      
Loop time of 1.15334 on 8 procs for 143 steps with 432 atoms

94.8% CPU use with 1 MPI tasks x 8 OpenMP threads

Minimization stats:
  Stopping criterion = energy tolerance
  Energy initial, next-to-last, final = 
     -1089.18601553456  -1470.50551980247  -1470.50556018378
  Force two-norm initial, final = 11.501571 4.5949336
  Force max component initial, final = 1.3540431 2.0663849
  Final line search alpha, max atom move = 0.071150886 0.14702512
  Iterations, force evaluations = 143 234

MPI task timing breakdown:
Section |  min time  |  avg time  |  max time  |%varavg| %total
---------------------------------------------------------------
Pair    | 1.1002     | 1.1002     | 1.1002     |   0.0 | 95.39
Neigh   | 0.005719   | 0.005719   | 0.005719   |   0.0 |  0.50
Comm    | 0.002324   | 0.002324   | 0.002324   |   0.0 |  0.20
Output  | 0          | 0          | 0          |   0.0 |  0.00
Modify  | 0.039228   | 0.039228   | 0.039228   |   0.0 |  3.40
Other   |            | 0.005857   |            |       |  0.51

Nlocal:            432 ave         432 max         432 min
Histogram: 1 0 0 0 0 0 0 0 0 0
Nghost:           1738 ave        1738 max        1738 min
Histogram: 1 0 0 0 0 0 0 0 0 0
Neighs:          14877 ave       14877 max       14877 min
Histogram: 1 0 0 0 0 0 0 0 0 0
FullNghs:        29754 ave       29754 max       29754 min
Histogram: 1 0 0 0 0 0 0 0 0 0

Total # of neighbors = 29754
Ave neighs/atom = 68.875
Neighbor list builds = 9
Dangerous builds = 0
Minimized PE/atom: -3.40394805598098 eV/atom
=== STAGE 2: NPT Equilibration at 400 K ===
No /omp style for force computation currently active
Setting up Verlet run ...
  Unit style    : metal
  Current step  : 0
  Time step     : 0.002
Per MPI rank memory allocation (min/avg/max) = 18.15 | 18.15 | 18.15 Mbytes
   Step          Temp          PotEng         KinEng         TotEng         Press          Volume           Lx             Ly             Lz      
         0   400           -1470.5056      22.284449     -1448.2211     -26763.953      13186.072      16.705398      28.934598      27.2798      
       500   604.48397     -1544.7488      33.67648      -1511.0723      275.65429      8746.3824      14.568936      25.234137      23.790972    
      1000   430.34378     -1590.2592      23.974935     -1566.2842     -1346.4241      7828.5334      14.040367      24.31863       22.927824    
      1500   410.02389     -1603.8064      22.842891     -1580.9635      905.47277      7492.3327      13.836429      23.965398      22.594794    
      2000   372.64095     -1617.2093      20.760246     -1596.4491     -1706.7059      7081.2573      13.578604      23.518832      22.173768    
      2500   398.41938     -1629.0518      22.196391     -1606.8554     -2418.5222      6777.5542      13.38164       23.17768       21.852126    
      3000   399.19458     -1633.0138      22.239578     -1610.7742     -1342.244       6702.5823      13.332115      23.091901      21.771253    
      3500   386.02659     -1635.6692      21.505974     -1614.1632      5566.2659      6616.622       13.274875      22.992758      21.67778     
      4000   395.6464      -1637.5443      22.041905     -1615.5024     -997.13084      6584.4021      13.253293      22.955376      21.642536    
      4500   414.50802     -1640.6623      23.092707     -1617.5696     -2619.0554      6477.8908      13.181441      22.830925      21.525202    
      5000   397.98635     -1643.9919      22.172266     -1621.8197      756.80283      6274.5828      13.042073      22.589533      21.297616    
      5500   379.09952     -1644.4179      21.12006      -1623.2978      3164.5304      6286.9592      13.050642      22.604375      21.311609    
      6000   402.68957     -1645.2274      22.434288     -1622.7931      1678.2091      6290.8846      13.053358      22.609079      21.316044    
      6500   402.76882     -1644.5179      22.438703     -1622.0792     -3924.5395      6264.242       13.034904      22.577116      21.285909    
      7000   389.9739      -1646.231       21.725884     -1624.5051      3806.1588      6232.1128      13.012581      22.538451      21.249455    
      7500   408.0511      -1646.9172      22.732985     -1624.1842     -497.30845      6237.2768      13.016174      22.544675      21.255323    
      8000   398.35175     -1648.6527      22.192623     -1626.4601      965.6557       6222.4505      13.005852      22.526797      21.238468    
      8500   417.49959     -1647.9344      23.259371     -1624.675      -898.80934      6225.8642      13.00823       22.530916      21.242351    
      9000   398.58962     -1647.567       22.205875     -1625.3611     -2547.1627      6205.9253      12.994329      22.506838      21.21965     
      9500   392.7284      -1649.0565      21.87934      -1627.1772     -4181.8056      6258.4784      13.030905      22.57019       21.279379    
     10000   386.26064     -1650.3493      21.519014     -1628.8303     -3569.976       6251.8925      13.026333      22.56227       21.271912    
     10500   382.30309     -1650.8545      21.298534     -1629.556       853.28079      6208.61        12.996202      22.510083      21.222709    
     11000   421.97681     -1649.5277      23.508802     -1626.0189      2455.1155      6186.661       12.980869      22.483525      21.197671    
     11500   399.96462     -1649.188       22.282478     -1626.9055      3197.5876      6184.8785      12.979622      22.481366      21.195635    
     12000   417.60615     -1650.9481      23.265307     -1627.6828      1060.7612      6205.6906      12.994165      22.506554      21.219383    
     12500   404.54426     -1648.7957      22.537615     -1626.2581      1227.372       6234.8334      13.014474      22.54173       21.252547    
     13000   400.05114     -1650.589       22.287298     -1628.3017      311.21451      6264.4438      13.035044      22.577359      21.286138    
     13500   399.0633      -1651.9913      22.232264     -1629.759      -1637.4437      6227.8489      13.009612      22.53331       21.244608    
     14000   383.51509     -1651.7153      21.366056     -1630.3492     -1918.4349      6240.0751      13.01812       22.548045      21.258501    
     14500   382.60463     -1652.0723      21.315333     -1630.757       2991.1389      6196.0812      12.987454      22.494931      21.208424    
     15000   386.52015     -1650.5466      21.533472     -1629.0132     -954.86742      6257.9032      13.030506      22.569499      21.278727    
     15500   393.69403     -1650.897       21.933136     -1628.9639      2053.925       6222.098       13.005607      22.526372      21.238067    
     16000   396.56664     -1652.9964      22.093173     -1630.9032     -2623.9429      6236.2904      13.015488      22.543486      21.254202    
     16500   371.45435     -1651.5663      20.694139     -1630.8722      2015.7413      6222.4834      13.005875      22.526837      21.238505    
     17000   385.32158     -1651.5965      21.466698     -1630.1298     -584.52465      6210.0465      12.997205      22.511819      21.224346    
     17500   399.91299     -1650.6338      22.279601     -1628.3542      63.353954      6199.5654      12.989888      22.499147      21.212399    
     18000   387.21892     -1651.8826      21.572401     -1630.3102     -5815.0039      6247.3572      13.023182      22.556813      21.266767    
     18500   401.18766     -1651.7666      22.350615     -1629.416       934.92885      6206.3178      12.994603      22.507312      21.220097    
     19000   400.0546      -1651.6233      22.287491     -1629.3358      3387.0099      6197.611       12.988523      22.496782      21.21017     
     19500   392.00989     -1653.396       21.839311     -1631.5567      1881.5913      6151.3489      12.956125      22.440666      21.157263    
     20000   415.87349     -1653.9483      23.168779     -1630.7795      605.73895      6126.7466      12.938829      22.410709      21.129019    
Loop time of 273.152 on 8 procs for 20000 steps with 432 atoms

Performance: 12.652 ns/day, 1.897 hours/ns, 73.219 timesteps/s, 31.631 katom-step/s
94.1% CPU use with 1 MPI tasks x 8 OpenMP threads

MPI task timing breakdown:
Section |  min time  |  avg time  |  max time  |%varavg| %total
---------------------------------------------------------------
Pair    | 245.51     | 245.51     | 245.51     |   0.0 | 89.88
Neigh   | 0.041773   | 0.041773   | 0.041773   |   0.0 |  0.02
Comm    | 0.29282    | 0.29282    | 0.29282    |   0.0 |  0.11
Output  | 0.003925   | 0.003925   | 0.003925   |   0.0 |  0.00
Modify  | 27.249     | 27.249     | 27.249     |   0.0 |  9.98
Other   |            | 0.05482    |            |       |  0.02

Nlocal:            432 ave         432 max         432 min
Histogram: 1 0 0 0 0 0 0 0 0 0
Nghost:           2574 ave        2574 max        2574 min
Histogram: 1 0 0 0 0 0 0 0 0 0
Neighs:          32356 ave       32356 max       32356 min
Histogram: 1 0 0 0 0 0 0 0 0 0
FullNghs:        64712 ave       64712 max       64712 min
Histogram: 1 0 0 0 0 0 0 0 0 0

Total # of neighbors = 64712
Ave neighs/atom = 149.7963
Neighbor list builds = 48
Dangerous builds = 0
=== STAGE 3: NPT Production at 400 K ===
No /omp style for force computation currently active
Setting up Verlet run ...
  Unit style    : metal
  Current step  : 0
  Time step     : 0.001
Per MPI rank memory allocation (min/avg/max) = 18.73 | 18.73 | 18.73 Mbytes
   Step          Temp          PotEng         KinEng         TotEng         Press          Volume           Lx             Ly             Lz      
         0   415.87349     -1653.9483      23.168779     -1630.7795      605.73895      6126.7466      12.938829      22.410709      21.129019    
       500   429.92109     -1654.0422      23.951387     -1630.0908     -1729.0501      6134.1542      12.944042      22.419738      21.137531    
      1000   398.78899     -1653.7785      22.216983     -1631.5615     -64.081063      6141.7032      12.949349      22.428931      21.146199    
      1500   401.18189     -1654.8767      22.350293     -1632.5264     -4161.8612      6155.3592      12.95894       22.445542      21.16186     
      2000   393.27369     -1653.8651      21.909719     -1631.9554     -1699.4256      6154.3241      12.958213      22.444284      21.160674    
      2500   402.61784     -1654.5595      22.430292     -1632.1292     -3183.4103      6133.8154      12.943803      22.419325      21.137142    
      3000   385.26832     -1655.5661      21.46373      -1634.1024      990.63816      6119.7652      12.933913      22.402194      21.120991    
      3500   377.30234     -1655.2333      21.019937     -1634.2134      1944.1145      6095.6698      12.916915      22.372754      21.093234    
      4000   395.69903     -1655.0451      22.044837     -1633.0003      3864.9838      6126.2964      12.938512      22.41016       21.128502    
      4500   386.23909     -1653.9399      21.517813     -1632.4221     -1444.7792      6133.3178      12.943453      22.418719      21.136571    
      5000   401.86798     -1652.3707      22.388516     -1629.9822      6626.5374      6094.1244      12.915824      22.370863      21.091452    
      5500   374.71336     -1652.9775      20.875702     -1632.1018     -5758.1916      6125.6339      12.938046      22.409353      21.12774     
      6000   390.57559     -1655.2153      21.759405     -1633.4559     -2874.1513      6131.1606      12.941936      22.41609       21.134092    
      6500   397.3014      -1655.3119      22.134107     -1633.1778     -5127.5366      6124.8863      12.937519      22.408441      21.126881    
      7000   374.66464     -1654.1566      20.872987     -1633.2836     -742.96017      6099.1341      12.919362      22.376991      21.09723     
      7500   413.80843     -1654.4563      23.053732     -1631.4026      1589.4706      6070.8313      12.899347      22.342324      21.064545    
      8000   412.51969     -1654.1852      22.981935     -1631.2032      9365.4872      6043.9631      12.880289      22.309315      21.033424    
      8500   405.03001     -1655.6155      22.564677     -1633.0508      6606.2205      6050.7507      12.885109      22.317663      21.041294    
      9000   409.87311     -1655.2274      22.834491     -1632.3929      6305.4147      6028.9001      12.86958       22.290766      21.015936    
      9500   417.30447     -1654.5485      23.248501     -1631.3         2353.1394      6089.5462      12.912589      22.365259      21.086169    
     10000   377.29067     -1655.5874      21.019287     -1634.5681     -74.459526      6090.626       12.913352      22.366581      21.087415    
     10500   378.46482     -1655.2704      21.0847       -1634.1857      377.16212      6111.3169      12.927958      22.39188       21.111267    
     11000   393.94203     -1654.0718      21.946953     -1632.1248     -2992.9923      6097.5926      12.918273      22.375106      21.095452    
     11500   391.2803      -1655.3579      21.798665     -1633.5593     -117.23247      6080.6437      12.906293      22.354355      21.075888    
     12000   423.25828     -1655.8222      23.580194     -1632.242       502.65115      6079.508       12.905489      22.352963      21.074576    
     12500   411.14918     -1654.1997      22.905583     -1631.2941      1977.6505      6069.5692      12.898453      22.340776      21.063085    
     13000   409.89716     -1655.4464      22.835831     -1632.6106      2344.1681      6071.5338      12.899844      22.343186      21.065358    
     13500   383.56497     -1655.5983      21.368835     -1634.2294      3106.4884      6056.6734      12.889312      22.324942      21.048158    
     14000   393.38298     -1654.9792      21.915807     -1633.0633     -1151.8828      6079.5116      12.905492      22.352968      21.07458     
     14500   413.39812     -1655.3236      23.030873     -1632.2927      3119.0809      6067.8555      12.897239      22.338673      21.061103    
     15000   395.16878     -1653.9093      22.015296     -1631.894       2131.2701      6072.5781      12.900584      22.344467      21.066565    
     15500   375.89742     -1655.8137      20.941667     -1634.872      -1163.112       6056.5093      12.889195      22.324741      21.047967    
     16000   401.71969     -1656.0213      22.380255     -1633.641      -2486.8021      6094.0377      12.915762      22.370757      21.091352    
     16500   413.5404      -1654.9712      23.0388       -1631.9324      2322.618       6042.6229      12.879337      22.307666      21.031869    
     17000   413.11163     -1655.161       23.014913     -1632.1461     -1284.1179      6045.862       12.881638      22.311651      21.035626    
     17500   375.20713     -1656.9328      20.90321      -1636.0296     -3556.4316      6080.6254      12.90628       22.354333      21.075867    
     18000   372.35057     -1655.7218      20.744068     -1634.9777     -3499.1505      6072.3587      12.900429      22.344198      21.066312    
     18500   401.48368     -1655.8618      22.367106     -1633.4947     -4265.9443      6078.6038      12.90485       22.351855      21.073531    
     19000   417.07365     -1655.5621      23.235641     -1632.3265      4508.6817      6028.2179      12.869094      22.289925      21.015143    
     19500   404.65406     -1656.3001      22.543732     -1633.7563      2575.1392      6015.0102      12.859689      22.273634      20.999784    
     20000   391.49381     -1656.5859      21.810559     -1634.7753      1988.7064      6060.0746      12.891724      22.329121      21.052097    
     20500   404.40824     -1654.6011      22.530037     -1632.0711      558.45288      6076.4558      12.903329      22.349222      21.071049    
     21000   401.53244     -1655.6851      22.369823     -1633.3152      130.96401      6057.2208      12.8897        22.325615      21.048792    
     21500   411.70621     -1656.759       22.936615     -1633.8223     -3282.4747      6065.6026      12.895643      22.335908      21.058496    
     22000   394.26722     -1653.8403      21.96507      -1631.8753     -448.32022      6057.7965      12.890108      22.326322      21.049459    
     22500   416.29444     -1655.6014      23.192231     -1632.4092      792.89015      6056.1621      12.888949      22.324314      21.047565    
     23000   392.9387      -1655.7059      21.891056     -1633.8148     -4845.8981      6074.1006      12.901662      22.346334      21.068326    
     23500   399.32094     -1654.9594      22.246618     -1632.7128      1440.8807      6040.6779      12.877955      22.305272      21.029612    
     24000   415.09873     -1653.7381      23.125616     -1630.6125      2323.5526      6023.8374      12.865976      22.284525      21.010051    
     24500   396.02169     -1654.4503      22.062813     -1632.3875      4061.9828      6022.9094      12.865316      22.28338       21.008972    
     25000   387.94118     -1655.2694      21.612639     -1633.6568     -1327.3217      6067.3522      12.896882      22.338056      21.060521    
     25500   385.97357     -1654.5603      21.503021     -1633.0573     -2211.0007      6088.5632      12.911894      22.364056      21.085034    
     26000   405.78481     -1654.6272      22.606727     -1632.0205     -5173.3627      6112.3117      12.92866       22.393095      21.112413    
     26500   414.36163     -1653.651       23.084552     -1630.5665     -2173.3375      6113.3515      12.929393      22.394365      21.11361     
     27000   384.36006     -1652.9886      21.41313      -1631.5755     -1023.0727      6063.0356      12.893823      22.332757      21.055525    
     27500   404.51472     -1655.7392      22.535969     -1633.2032      1427.0285      6032.4561      12.87211       22.295148      21.020067    
     28000   395.55016     -1655.3456      22.036544     -1633.309       1464.8676      6062.1596      12.893202      22.331681      21.054511    
     28500   397.65024     -1656.7139      22.153541     -1634.5604     -472.86104      6091.728       12.91413       22.36793       21.088687    
     29000   414.34338     -1655.6386      23.083535     -1632.555       1334.0877      6052.0989      12.886066      22.319321      21.042857    
     29500   387.26197     -1655.4885      21.574799     -1633.9137     -247.44056      6032.8931      12.87242       22.295686      21.020574    
     30000   379.00139     -1656.9036      21.114593     -1635.789      -858.84195      6041.1572      12.878295      22.305862      21.030168    
     30500   367.3943      -1656.18        20.467949     -1635.7121     -3144.0679      6101.518       12.921045      22.379906      21.099978    
     31000   386.11142     -1656.9708      21.5107       -1635.4601      1295.7322      6020.3693      12.863507      22.280247      21.006019    
     31500   383.23247     -1656.6535      21.350311     -1635.3031     -1179.3186      6020.7535      12.86378       22.280721      21.006465    
     32000   402.87781     -1654.2523      22.444775     -1631.8075     -3524.444       6031.0348      12.871098      22.293396      21.018416    
     32500   411.38589     -1656.426       22.91877      -1633.5073      5439.349       5992.7708      12.84382       22.24615       20.973871    
     33000   392.6034      -1657.2719      21.872376     -1635.3995     -3170.265       6022.2057      12.864815      22.282512      21.008154    
     33500   399.91968     -1658.1402      22.279974     -1635.8603     -2593.0477      6011.7123      12.857338      22.269563      20.995945    
     34000   412.05714     -1657.0205      22.956166     -1634.0643      1067.2073      5993.4874      12.844332      22.247036      20.974707    
     34500   374.87492     -1656.6065      20.884702     -1635.7218      2289.3292      5985.2548      12.838449      22.236845      20.965099    
     35000   383.32933     -1657.65        21.355707     -1636.2943     -3267.3538      6046.1781      12.881862      22.31204       21.035993    
     35500   390.83587     -1657.8512      21.773905     -1636.0773     -1484.2816      6017.1044      12.861181      22.276219      21.002221    
     36000   387.12085     -1656.8098      21.566937     -1635.2428      2964.4602      6003.7928      12.85169       22.25978       20.986722    
     36500   391.82939     -1657.9732      21.829255     -1636.1439      3908.5391      5978.189       12.833395      22.228092      20.956846    
     37000   409.52616     -1656.3845      22.815162     -1633.5694      5519.0306      5978.5771      12.833672      22.228573      20.957299    
     37500   383.54954     -1655.5301      21.367975     -1634.1621      3065.1843      5953.2212      12.815504      22.197103      20.92763     
     38000   394.59238     -1654.948       21.983184     -1632.9648     -1426.4156      6000.717       12.849495      22.255978      20.983137    
     38500   374.7162      -1655.4881      20.87586      -1634.6123      4038.8458      6022.545       12.865056      22.282931      21.008549    
     39000   409.86364     -1658.4514      22.833963     -1635.6174      4648.5454      5974.1134      12.830478      22.223039      20.952082    
     39500   421.62715     -1656.8652      23.489322     -1633.3758      3458.4836      5988.2558      12.840594      22.240561      20.968602    
     40000   402.84677     -1656.0372      22.443046     -1633.5942      3503.7862      5991.2725      12.84275       22.244295      20.972123    
     40500   411.67667     -1657.5821      22.93497      -1634.6471     -1142.4505      6000.3961      12.849266      22.255581      20.982763    
     41000   401.32839     -1657.4288      22.358455     -1635.0703      5366.067       6001.9765      12.850394      22.257535      20.984605    
     41500   364.66729     -1657.5857      20.316024     -1637.2697      815.53007      6010.3851      12.856392      22.267924      20.9944      
     42000   404.68555     -1656.6929      22.545486     -1634.1474      5012.4244      6019.9555      12.863212      22.279737      21.005537    
     42500   406.04977     -1656.1529      22.621488     -1633.5314      1288.9044      6004.8757      12.852462      22.261118      20.987983    
     43000   375.76515     -1657.0237      20.934298     -1636.0894      1135.4115      6013.8569      12.858867      22.272211      20.998442    
     43500   398.27462     -1658.318       22.188326     -1636.1297      2589.4443      5996.6823      12.846614      22.250989      20.978433    
     44000   422.14556     -1656.782       23.518203     -1633.2637      7422.6246      5949.8321      12.813071      22.19289       20.923658    
     44500   393.59886     -1657.2764      21.927834     -1635.3486     -867.21317      5980.8845      12.835323      22.231432      20.959995    
     45000   399.39303     -1656.821       22.250634     -1634.5704      720.99556      6022.6063      12.8651        22.283007      21.00862     
     45500   404.37069     -1655.9835      22.527945     -1633.4556     -7327.7656      6066.0116      12.895932      22.33641       21.058969    
     46000   409.66127     -1658.3626      22.822689     -1635.5399     -5509.8966      6039.5494      12.877153      22.303883      21.028302    
     46500   397.84307     -1659.3433      22.164284     -1637.179       2546.9853      5991.4214      12.842856      22.24448       20.972297    
     47000   408.35857     -1658.5721      22.750115     -1635.822       796.48322      5992.2626      12.843457      22.245521      20.973278    
     47500   429.61377     -1658.5775      23.934266     -1634.6432      2235.885       6016.6212      12.860837      22.275623      21.001658    
     48000   423.77555     -1658.3332      23.609012     -1634.7242      3038.6433      5956.6068      12.817933      22.20131       20.931596    
     48500   397.07921     -1657.9688      22.121729     -1635.8471      712.94612      5982.0774      12.836176      22.23291       20.961388    
     49000   386.74753     -1657.5363      21.546139     -1635.9902      778.99723      6012.3212      12.857772      22.270315      20.996654    
     49500   388.17204     -1658.5107      21.6255       -1636.8852     -667.96632      6003.4427      12.85144       22.259347      20.986314    
     50000   401.14762     -1657.6809      22.348384     -1635.3325      731.63201      5993.2339      12.844151      22.246723      20.974411    
Loop time of 741.188 on 8 procs for 50000 steps with 432 atoms

Performance: 5.828 ns/day, 4.118 hours/ns, 67.459 timesteps/s, 29.142 katom-step/s
94.1% CPU use with 1 MPI tasks x 8 OpenMP threads

MPI task timing breakdown:
Section |  min time  |  avg time  |  max time  |%varavg| %total
---------------------------------------------------------------
Pair    | 669.74     | 669.74     | 669.74     |   0.0 | 90.36
Neigh   | 0.013662   | 0.013662   | 0.013662   |   0.0 |  0.00
Comm    | 0.75676    | 0.75676    | 0.75676    |   0.0 |  0.10
Output  | 0.008216   | 0.008216   | 0.008216   |   0.0 |  0.00
Modify  | 70.532     | 70.532     | 70.532     |   0.0 |  9.52
Other   |            | 0.1357     |            |       |  0.02

Nlocal:            432 ave         432 max         432 min
Histogram: 1 0 0 0 0 0 0 0 0 0
Nghost:           2557 ave        2557 max        2557 min
Histogram: 1 0 0 0 0 0 0 0 0 0
Neighs:          32891 ave       32891 max       32891 min
Histogram: 1 0 0 0 0 0 0 0 0 0
FullNghs:        65782 ave       65782 max       65782 min
Histogram: 1 0 0 0 0 0 0 0 0 0

Total # of neighbors = 65782
Ave neighs/atom = 152.27315
Neighbor list builds = 13
Dangerous builds = 0

=== FINAL RESULTS: DHCP at 400 K ===
Atoms: 432 | PE/atom: -3.83684788065366 eV/atom
WARNING: Detected non-ASCII characters in input. Will try to continue by replacing with ASCII equivalents where known. (src/input.cpp:479)
Volume: 5993.23390924224 …³ | Area: 285.740269790959 ²
==========================================
DHCP 400 432 -3.83684788065366 5993.23390924224 12.8441512645643 22.24672256697 20.9744111798689 285.740269790959
Simulation complete!
Total wall time: 0:16:55
