LAMMPS (10 Sep 2025)
  using 8 OpenMP thread(s) per MPI task
Loaded 1 plugins from C:\Users\harsh\Downloads\LAMMPS 64-bit 10Sep2025\plugins
using multi-threaded neighbor list subroutines
Reading data file ...
  orthogonal box = (0 0 0) to (16.705398 28.934598 27.2798)
  1 by 1 by 1 MPI processor grid
  reading atoms ...
  432 atoms
  read_data CPU = 0.018 seconds
=== STAGE 1: Energy Minimization ===
Switching to 'neigh_modify every 1 delay 0 check yes' setting during minimization
No /omp style for force computation currently active
Neighbor list info ...
  update: every = 1 steps, delay = 0 steps, check = yes
  max neighbors/atom: 4000, page size: 100000
  master list distance cutoff = 8
  ghost atom cutoff = 8
  binsize = 4, bins = 5 8 7
  2 neighbor lists, perpetual/occasional/extra = 2 0 0
  (1) pair meam, perpetual
      attributes: full, newton on, omp
      pair build: full/bin/atomonly/omp
      stencil: full/bin/3d
      bin: standard
  (2) pair meam, perpetual, half/full from (1)
      attributes: half, newton on, omp
      pair build: halffull/newton/omp
      stencil: none
      bin: none
Setting up cg style minimization ...
  Unit style    : metal
  Current step  : 0
Per MPI rank memory allocation (min/avg/max) = 19.3 | 19.3 | 19.3 Mbytes
   Step          Temp          PotEng         KinEng         TotEng         Press          Volume           Lx             Ly             Lz      
         0   0             -1002.3625      0             -1002.3625     -109454.33      13186.072      16.705398      28.934598      27.2798      
       269   0             -1477.3259      0             -1477.3259     -16607.71       13186.072      16.705398      28.934598      27.2798      
Loop time of 4.5924 on 8 procs for 269 steps with 432 atoms

94.6% CPU use with 1 MPI tasks x 8 OpenMP threads

Minimization stats:
  Stopping criterion = energy tolerance
  Energy initial, next-to-last, final = 
     -1002.36247461269  -1477.32444368426  -1477.32591615106
  Force two-norm initial, final = 6.2005143 8.7238596
  Force max component initial, final = 0.58319845 4.7137134
  Final line search alpha, max atom move = 0.003765493 0.017749455
  Iterations, force evaluations = 269 604

MPI task timing breakdown:
Section |  min time  |  avg time  |  max time  |%varavg| %total
---------------------------------------------------------------
Pair    | 4.4066     | 4.4066     | 4.4066     |   0.0 | 95.95
Neigh   | 0.008389   | 0.008389   | 0.008389   |   0.0 |  0.18
Comm    | 0.012053   | 0.012053   | 0.012053   |   0.0 |  0.26
Output  | 0          | 0          | 0          |   0.0 |  0.00
Modify  | 0.14797    | 0.14797    | 0.14797    |   0.0 |  3.22
Other   |            | 0.01743    |            |       |  0.38

Nlocal:            432 ave         432 max         432 min
Histogram: 1 0 0 0 0 0 0 0 0 0
Nghost:           1804 ave        1804 max        1804 min
Histogram: 1 0 0 0 0 0 0 0 0 0
Neighs:          15776 ave       15776 max       15776 min
Histogram: 1 0 0 0 0 0 0 0 0 0
FullNghs:        31552 ave       31552 max       31552 min
Histogram: 1 0 0 0 0 0 0 0 0 0

Total # of neighbors = 31552
Ave neighs/atom = 73.037037
Neighbor list builds = 10
Dangerous builds = 0
Minimized PE/atom: -3.41973591701635 eV/atom
=== STAGE 2: NPT Equilibration at 400 K ===
No /omp style for force computation currently active
Setting up Verlet run ...
  Unit style    : metal
  Current step  : 0
  Time step     : 0.002
Per MPI rank memory allocation (min/avg/max) = 18.17 | 18.17 | 18.17 Mbytes
   Step          Temp          PotEng         KinEng         TotEng         Press          Volume           Lx             Ly             Lz      
         0   400           -1477.3259      22.284449     -1455.0415     -14802.592      13186.072      16.705398      28.934598      27.2798      
       500   599.89951     -1551.4377      33.421075     -1518.0167     -6963.544       9421.7931      14.934689      25.867641      24.388245    
      1000   431.40374     -1594.0484      24.033987     -1570.0144     -2230.3603      8487.1233      14.423539      24.982303      23.553541    
      1500   401.05814     -1609.9771      22.343399     -1587.6337     -916.55064      8103.5221      14.202875      24.600102      23.193198    
      2000   411.30822     -1614.2399      22.914442     -1591.3254      333.02473      8002.305       14.143494      24.49725       23.096229    
      2500   382.96085     -1617.6067      21.335179     -1596.2715      53.47957       7832.4209      14.042691      24.322654      22.931618    
      3000   402.45813     -1621.9372      22.421394     -1599.5158     -1031.3785      7699.0154      13.962507      24.183771      22.800678    
      3500   382.05831     -1625.1116      21.284898     -1603.8267      1336.1671      7600.7352      13.90284       24.080426      22.703243    
      4000   404.57105     -1625.4691      22.539107     -1602.93        941.15789      7606.0261      13.906066      24.086012      22.70851     
      4500   400.96428     -1625.1109      22.33817      -1602.7727      2326.5147      7534.6147      13.862408      24.010395      22.637218    
      5000   400.18909     -1625.1797      22.294984     -1602.8847      306.26384      7498.0106      13.839923      23.97145       22.6005      
      5500   391.65599     -1626.8123      21.819595     -1604.9927     -1227.7982      7572.328       13.885498      24.050389      22.674924    
      6000   390.9738      -1627.0806      21.781589     -1605.299      -860.69515      7541.6591      13.866727      24.017876      22.644271    
      6500   396.80817     -1626.8412      22.106629     -1604.7345     -750.93954      7568.768       13.883322      24.046619      22.67137     
      7000   422.73057     -1626.715       23.550795     -1603.1642      1031.9149      7519.6715      13.853238      23.994512      22.622243    
      7500   410.83933     -1627.6198      22.88832      -1604.7314      2705.3355      7462.9166      13.818297      23.933993      22.565185    
      8000   399.58922     -1627.8666      22.261564     -1605.605       522.82665      7421.5037      13.79269       23.88964       22.523368    
      8500   402.60279     -1626.9191      22.429453     -1604.4897     -506.20006      7532.8375      13.861318      24.008507      22.635438    
      9000   384.31887     -1627.099       21.410836     -1605.6882      3512.0975      7448.1601      13.809184      23.918208      22.550302    
      9500   403.90932     -1627.0498      22.502242     -1604.5476     -1148.5432      7564.8661      13.880936      24.042486      22.667474    
     10000   390.91166     -1627.8169      21.778128     -1606.0387      682.75394      7473.6157      13.824898      23.945425      22.575963    
     10500   410.79996     -1628.773       22.886127     -1605.8869     -4948.5331      7467.211       13.820947      23.938583      22.569512    
     11000   424.82025     -1629.9885      23.667213     -1606.3213      615.03847      7445.0381      13.807254      23.914865      22.547151    
     11500   393.52951     -1629.4159      21.923971     -1607.492       3854.0368      7392.4509      13.774668      23.858425      22.493939    
     12000   411.48458     -1630.7228      22.924268     -1607.7985      3725.2384      7448.2134      13.809217      23.918265      22.550356    
     12500   386.31211     -1628.8847      21.521881     -1607.3628      2224.2217      7414.7567      13.788509      23.882398      22.516541    
     13000   410.87705     -1628.0303      22.890422     -1605.1398     -4930.5745      7483.6872      13.831105      23.956177      22.5861      
     13500   409.5225      -1628.1252      22.814958     -1605.3103      2546.0153      7421.9418      13.792961      23.89011       22.523811    
     14000   375.46033     -1628.1066      20.917316     -1607.1893      1220.9378      7454.8253      13.813302      23.92534       22.557027    
     14500   381.99006     -1629.9589      21.281095     -1608.6778      664.81872      7431.9548      13.799161      23.900848      22.533936    
     15000   379.58274     -1630.6601      21.146981     -1609.5132     -414.02153      7453.9747      13.812776      23.92443       22.556169    
     15500   387.04012     -1630.7858      21.56244      -1609.2234      974.7606       7438.2916      13.803082      23.907639      22.540339    
     16000   413.12765     -1631.5829      23.015805     -1608.5671      768.67345      7413.092       13.787477      23.880611      22.514856    
     16500   422.00962     -1632.4157      23.51063      -1608.9051     -3182.0421      7384.5041      13.769731      23.849873      22.485876    
     17000   397.71276     -1630.8075      22.157024     -1608.6505     -6634.4563      7427.4855      13.796395      23.896056      22.529418    
     17500   391.67242     -1633.2359      21.82051      -1611.4154      1057.7802      7305.5431      13.720476      23.764561      22.405443    
     18000   389.09191     -1632.9754      21.676747     -1611.2987      3008.2202      7286.1778      13.708342      23.743544      22.385628    
     18500   425.24584     -1630.9871      23.690923     -1607.2962     -3755.0335      7397.5751      13.77785       23.863937      22.499135    
     19000   384.60338     -1633.6186      21.426686     -1612.1919      1314.7684      7312.2051      13.724645      23.771783      22.412252    
     19500   391.3739      -1633.447       21.803879     -1611.6431      321.23613      7380.7589      13.767402      23.845841      22.482074    
     20000   425.34167     -1634.1965      23.696262     -1610.5002      1852.9283      7339.4251      13.741654      23.801243      22.440027    
Loop time of 342.286 on 8 procs for 20000 steps with 432 atoms

Performance: 10.097 ns/day, 2.377 hours/ns, 58.431 timesteps/s, 25.242 katom-step/s
91.8% CPU use with 1 MPI tasks x 8 OpenMP threads

MPI task timing breakdown:
Section |  min time  |  avg time  |  max time  |%varavg| %total
---------------------------------------------------------------
Pair    | 303.18     | 303.18     | 303.18     |   0.0 | 88.57
Neigh   | 0.046199   | 0.046199   | 0.046199   |   0.0 |  0.01
Comm    | 0.48045    | 0.48045    | 0.48045    |   0.0 |  0.14
Output  | 0.004236   | 0.004236   | 0.004236   |   0.0 |  0.00
Modify  | 38.483     | 38.483     | 38.483     |   0.0 | 11.24
Other   |            | 0.09294    |            |       |  0.03

Nlocal:            432 ave         432 max         432 min
Histogram: 1 0 0 0 0 0 0 0 0 0
Nghost:           2397 ave        2397 max        2397 min
Histogram: 1 0 0 0 0 0 0 0 0 0
Neighs:          27698 ave       27698 max       27698 min
Histogram: 1 0 0 0 0 0 0 0 0 0
FullNghs:        55396 ave       55396 max       55396 min
Histogram: 1 0 0 0 0 0 0 0 0 0

Total # of neighbors = 55396
Ave neighs/atom = 128.23148
Neighbor list builds = 45
Dangerous builds = 0
=== STAGE 3: NPT Production at 400 K ===
No /omp style for force computation currently active
Setting up Verlet run ...
  Unit style    : metal
  Current step  : 0
  Time step     : 0.001
Per MPI rank memory allocation (min/avg/max) = 18.63 | 18.63 | 18.63 Mbytes
   Step          Temp          PotEng         KinEng         TotEng         Press          Volume           Lx             Ly             Lz      
         0   425.34167     -1634.1965      23.696262     -1610.5002      1852.9283      7339.4251      13.741654      23.801243      22.440027    
       500   386.67084     -1634.5122      21.541867     -1612.9704      3658.2146      7274.7573      13.701176      23.731133      22.373926    
      1000   386.76205     -1634.7834      21.546948     -1613.2364      1107.4343      7284.1007      13.707039      23.741288      22.383501    
      1500   405.53117     -1634.492       22.592597     -1611.8994      931.94171      7301.9763      13.718243      23.760693      22.401796    
      2000   410.50446     -1635.1588      22.869664     -1612.2891     -1535.8533      7278.0739      13.703258      23.734738      22.377326    
      2500   408.47302     -1634.7479      22.75649      -1611.9914      4472.2044      7306.8063      13.721267      23.765931      22.406734    
      3000   407.10333     -1633.6213      22.680183     -1610.9411      624.66887      7297.4175      13.715387      23.755747      22.397133    
      3500   402.84816     -1637.6219      22.443123     -1615.1787     -2479.2749      7318.8726      13.728815      23.779006      22.419062    
      4000   415.54541     -1638.1206      23.150501     -1614.9701      1910.8759      7216.4395      13.664466      23.667549      22.313979    
      4500   421.59053     -1637.0522      23.487281     -1613.5649     -3722.183       7326.6063      13.733649      23.787378      22.426955    
      5000   417.54923     -1637.487       23.262137     -1614.2249     -2372.1415      7278.512       13.703533      23.735215      22.377775    
      5500   395.89848     -1638.5418      22.055948     -1616.4859     -3158.6967      7293.5231      13.712947      23.751521      22.393148    
      6000   412.01771     -1638.4837      22.953969     -1615.5297     -446.90463      7228.5655      13.672115      23.680798      22.326471    
      6500   401.56265     -1637.9536      22.371506     -1615.5821     -8477.5639      7262.7624      13.693641      23.718082      22.361623    
      7000   423.25682     -1638.597       23.580113     -1615.0169      2318.8589      7243.4415      13.681488      23.697032      22.341776    
      7500   398.7578      -1639.2881      22.215244     -1617.0728      3095.7959      7201.2316      13.65486       23.650912      22.298294    
      8000   416.54908     -1639.9777      23.206417     -1616.7712      3888.783       7148.8125      13.621648      23.593386      22.244057    
      8500   383.16461     -1637.2427      21.346531     -1615.8962     -1603.4246      7195.3212      13.651124      23.64444       22.292191    
      9000   384.11396     -1639.1215      21.39942      -1617.722      -723.38821      7227.6851      13.67156       23.679837      22.325564    
      9500   395.1596      -1640.3634      22.014785     -1618.3486     -2195.431       7233.4065      13.675167      23.686083      22.331454    
     10000   400.31323     -1637.6697      22.301899     -1615.3678     -2397.36        7238.4446      13.678341      23.691581      22.336637    
     10500   396.60729     -1638.4406      22.095437     -1616.3452      6124.6867      7133.632       13.611999      23.576674      22.228301    
     11000   408.94533     -1641.2287      22.782804     -1618.4459      3034.2803      7111.4777      13.597893      23.552242      22.205266    
     11500   390.41412     -1639.8839      21.750409     -1618.1335      309.22662      7157.2361      13.626996      23.602649      22.252791    
     12000   411.74013     -1638.5488      22.938505     -1615.6103      1849.675       7173.0546      13.637027      23.620024      22.269173    
     12500   408.82569     -1638.0196      22.776138     -1615.2435     -3384.2322      7211.8732      13.661583      23.662556      22.309272    
     13000   397.80904     -1638.5758      22.162388     -1616.4134     -2409.689       7143.5324      13.618293      23.587575      22.238579    
     13500   410.4084      -1640.3309      22.864313     -1617.4666     -2577.1041      7133.056       13.611632      23.576039      22.227703    
     14000   396.67868     -1641.3154      22.099414     -1619.216       3469.9975      7066.9199      13.569434      23.502949      22.158793    
     14500   406.06003     -1639.4394      22.62206      -1616.8173     -1810.6899      7163.4075      13.630911      23.609431      22.259185    
     15000   408.65393     -1639.5556      22.766569     -1616.789      -756.67174      7139.7691      13.615901      23.583433      22.234674    
     15500   376.2481      -1641.6647      20.961204     -1620.7035     -886.93434      7170.4591      13.635382      23.617175      22.266486    
     16000   379.10074     -1640.6849      21.120128     -1619.5647      2144.5074      7126.8391      13.607677      23.569188      22.221243    
     16500   406.80304     -1641.6791      22.663454     -1619.0157     -2822.016       7111.9558      13.598198      23.552769      22.205764    
     17000   408.91455     -1640.4866      22.781089     -1617.7055     -13.657669      7158.2263      13.627624      23.603737      22.253817    
     17500   379.42054     -1642.3789      21.137944     -1621.2409     -2041.1396      7129.9786      13.609675      23.572648      22.224506    
     18000   411.90746     -1641.7673      22.947827     -1618.8194      6980.9912      7080.3595      13.57803       23.517838      22.172831    
     18500   416.71388     -1642.3271      23.215598     -1619.1116     -3207.4477      7245.477       13.682769      23.699251      22.343868    
     19000   409.13015     -1642.5413      22.7931       -1619.7482     -1157.7224      7162.7231      13.630477      23.608679      22.258476    
     19500   383.99423     -1641.4372      21.392749     -1620.0444      2147.8752      7097.0542      13.588694      23.536308      22.190244    
     20000   393.83164     -1640.4214      21.940803     -1618.4806     -4494.9653      7169.8065      13.634969      23.616459      22.265811    
     20500   400.37795     -1641.9599      22.305505     -1619.6544     -200.24527      7131.2086      13.610457      23.574003      22.225784    
     21000   372.06462     -1642.0766      20.728137     -1621.3484     -222.58603      7144.7358      13.619058      23.5889        22.239828    
     21500   414.58467     -1642.741       23.096977     -1619.644      -4267.3622      7124.2284      13.606015      23.566309      22.218529    
     22000   402.46865     -1642.0081      22.42198      -1619.5861      2710.2481      7116.283       13.600955      23.557545      22.210267    
     22500   397.01642     -1643.0017      22.118231     -1620.8835     -1937.0975      7108.0927      13.595735      23.548504      22.201743    
     23000   391.28746     -1643.3904      21.799064     -1621.5913     -99.776137      7116.6093      13.601163      23.557905      22.210606    
     23500   380.83391     -1641.4676      21.216685     -1620.2509      5996.2083      7088.9874      13.583543      23.527387      22.181833    
     24000   428.11367     -1642.784       23.850693     -1618.9333     -163.24669      7102.1766      13.591962      23.541969      22.195581    
     24500   389.69338     -1641.8471      21.710256     -1620.1368      1685.2969      7081.7997      13.578951      23.519433      22.174334    
     25000   363.09393     -1644.3188      20.22837      -1624.0905      566.09386      7069.6471      13.571179      23.505972      22.161643    
     25500   400.81973     -1642.3586      22.330117     -1620.0285     -2644.6862      7130.0504      13.60972       23.572727      22.22458     
     26000   421.56303     -1643.4626      23.48575      -1619.9768      7735.6925      7013.2406      13.534989      23.443289      22.102545    
     26500   392.87844     -1642.361       21.887699     -1620.4733      601.24255      7070.6593      13.571827      23.507093      22.1627      
     27000   379.2333      -1643.3633      21.127513     -1622.2358      187.38918      7109.0786      13.596364      23.549593      22.202769    
     27500   402.09012     -1644.1702      22.400892     -1621.7693     -4726.8011      7178.9468      13.64076       23.62649       22.275268    
     28000   421.38234     -1644.3493      23.475683     -1620.8736     -1840.8881      7107.8905      13.595606      23.548281      22.201532    
     28500   408.43428     -1641.7164      22.754332     -1618.962       665.47991      7120.3878      13.60357       23.562074      22.214536    
     29000   396.86666     -1642.1064      22.109887     -1619.9965      2584.1551      7061.1384      13.565732      23.496538      22.152748    
     29500   376.31095     -1643.5113      20.964705     -1622.5466     -3300.3752      7116.4447      13.601058      23.557724      22.210435    
     30000   416.2817      -1643.7533      23.191521     -1620.5618     -1599.5667      7094.201       13.586872      23.533153      22.18727     
     30500   423.5432      -1643.2733      23.596067     -1619.6772      13.993396      7071.6084      13.572434      23.508145      22.163692    
     31000   393.63118     -1645.0634      21.929635     -1623.1337     -4019.3071      7046.4892      13.556345      23.480278      22.137418    
     31500   402.00434     -1645.2643      22.396113     -1622.8682      1766.3266      7038.5316      13.55124       23.471436      22.129082    
     32000   425.42775     -1643.9448      23.701057     -1620.2438      1915.6958      7046.9071      13.556613      23.480742      22.137856    
     32500   400.29679     -1642.7152      22.300983     -1620.4142      6781.972       7102.5742      13.592216      23.542408      22.195995    
     33000   399.28976     -1645.2247      22.244881     -1622.9798      1973.3159      7018.6782      13.538486      23.449346      22.108256    
     33500   394.90941     -1644.6692      22.000847     -1622.6684      3030.4941      7029.6463      13.545535      23.461555      22.119766    
     34000   424.51145     -1644.0115      23.650009     -1620.3615     -1739.6409      7079.8647      13.577714      23.51729       22.172314    
     34500   401.18886     -1643.7691      22.350682     -1621.4184      3460.8702      7021.313       13.54018       23.45228       22.111022    
     35000   422.11289     -1646.6138      23.516383     -1623.0974      4529.6202      7034.8131      13.548853      23.467301      22.125184    
     35500   382.64232     -1644.5767      21.317433     -1623.2592      662.96019      7091.0969      13.584891      23.529721      22.184033    
     36000   372.55097     -1644.1778      20.755233     -1623.4226     -3970.2735      7115.738       13.600608      23.556944      22.2097      
     36500   411.79156     -1644.9621      22.94137      -1622.0207      2374.3947      7054.2503      13.56132       23.488895      22.145542    
     37000   397.52393     -1645.3798      22.146504     -1623.2333     -2081.2512      7098.6195      13.589693      23.538038      22.191875    
     37500   409.95777     -1644.7849      22.839207     -1621.9457     -3979.6599      7149.8906      13.622332      23.594572      22.245175    
     38000   441.37162     -1643.8468      24.589308     -1619.2575      1095.7335      7098.1853      13.589416      23.537558      22.191423    
     38500   410.0098      -1644.4913      22.842106     -1621.6492     -2237.949       7118.9144      13.602631      23.560449      22.213004    
     39000   398.4507      -1644.8355      22.198136     -1622.6374     -1455.084       7067.3403      13.569703      23.503415      22.159232    
     39500   375.78858     -1644.8987      20.935603     -1623.9631     -3278.8902      7118.0055      13.602052      23.559446      22.212058    
     40000   391.88709     -1642.6359      21.83247      -1620.8034     -1149.1132      7064.9876      13.568197      23.500806      22.156773    
     40500   434.88428     -1644.9364      24.227891     -1620.7085      3008.814       7050.6353      13.559003      23.484882      22.141759    
     41000   414.94178     -1645.2986      23.116873     -1622.1817     -14.482057      7040.689       13.552624      23.473833      22.131342    
     41500   388.90695     -1645.7336      21.666443     -1624.0672      1137.0611      7090.3776      13.584431      23.528925      22.183283    
     42000   368.1318      -1645.2368      20.509036     -1624.7278      2717.1829      7098.6544      13.589715      23.538077      22.191912    
     42500   401.4157      -1646.28        22.363319     -1623.9167     -2747.4527      7093.3413      13.586324      23.532203      22.186374    
     43000   404.05345     -1644.4874      22.510271     -1621.9771     -3049.445       7175.2786      13.638437      23.622465      22.271474    
     43500   397.5906      -1645.0317      22.150218     -1622.8814     -24.639642      7048.7683      13.557806      23.482809      22.139804    
     44000   394.24403     -1646.3625      21.963778     -1624.3987     -4639.3757      7100.7442      13.591048      23.540386      22.194089    
     44500   385.5864      -1646.74        21.481451     -1625.2586      2042.2972      7082.3367      13.579294      23.520027      22.174894    
     45000   390.5411      -1645.4915      21.757483     -1623.734       2815.1961      7031.148       13.546499      23.463225      22.121341    
     45500   416.15173     -1644.9796      23.18428      -1621.7953     -733.75036      7094.1216      13.586822      23.533066      22.187187    
     46000   391.81442     -1644.4151      21.828421     -1622.5867     -2049.5662      7094.0116      13.586752      23.532944      22.187072    
     46500   383.73483     -1644.5113      21.378298     -1623.133       2667.4694      7075.2179      13.574743      23.512144      22.167462    
     47000   408.41586     -1647.0147      22.753306     -1624.2614      2604.8411      7064.8861      13.568132      23.500694      22.156667    
     47500   396.5947      -1645.0907      22.094736     -1622.996       3014.936       7065.3051      13.5684        23.501158      22.157105    
     48000   418.92344     -1645.6436      23.338695     -1622.3049      1497.8005      7051.0358      13.55926       23.485327      22.142178    
     48500   376.63972     -1645.0825      20.983021     -1624.0995     -955.7399       7045.0419      13.555416      23.47867       22.135902    
     49000   424.05517     -1647.8421      23.62459      -1624.2175      1748.17        6996.4374      13.524171      23.424551      22.084879    
     49500   411.33902     -1645.4871      22.916159     -1622.5709     -2788.295       7118.4357      13.602326      23.55992       22.212506    
     50000   384.19488     -1646.2392      21.403928     -1624.8353      2848.7885      6996.3894      13.52414       23.424498      22.084828    
Loop time of 934.441 on 8 procs for 50000 steps with 432 atoms

Performance: 4.623 ns/day, 5.191 hours/ns, 53.508 timesteps/s, 23.115 katom-step/s
92.3% CPU use with 1 MPI tasks x 8 OpenMP threads

MPI task timing breakdown:
Section |  min time  |  avg time  |  max time  |%varavg| %total
---------------------------------------------------------------
Pair    | 835.14     | 835.14     | 835.14     |   0.0 | 89.37
Neigh   | 0.0248     | 0.0248     | 0.0248     |   0.0 |  0.00
Comm    | 1.2633     | 1.2633     | 1.2633     |   0.0 |  0.14
Output  | 0.010852   | 0.010852   | 0.010852   |   0.0 |  0.00
Modify  | 97.768     | 97.768     | 97.768     |   0.0 | 10.46
Other   |            | 0.2342     |            |       |  0.03

Nlocal:            432 ave         432 max         432 min
Histogram: 1 0 0 0 0 0 0 0 0 0
Nghost:           2481 ave        2481 max        2481 min
Histogram: 1 0 0 0 0 0 0 0 0 0
Neighs:          28953 ave       28953 max       28953 min
Histogram: 1 0 0 0 0 0 0 0 0 0
FullNghs:        57906 ave       57906 max       57906 min
Histogram: 1 0 0 0 0 0 0 0 0 0

Total # of neighbors = 57906
Ave neighs/atom = 134.04167
Neighbor list builds = 22
Dangerous builds = 0

=== FINAL RESULTS: HCP at 400 K ===
Atoms: 432 | PE/atom: -3.80940373400117 eV/atom
WARNING: Detected non-ASCII characters in input. Will try to continue by replacing with ASCII equivalents where known. (src/input.cpp:479)
Volume: 6996.38935249362 …³ | Area: 316.796186614875 ²
==========================================
HCP 400 432 -3.80940373400117 6996.38935249362 13.5241400335819 23.4244976633069 22.0848281895484 316.796186614875
Simulation complete!
Total wall time: 0:21:21
