LAMMPS (10 Sep 2025)
  using 8 OpenMP thread(s) per MPI task
Loaded 1 plugins from C:\Users\harsh\Downloads\LAMMPS 64-bit 10Sep2025\plugins
using multi-threaded neighbor list subroutines
Reading data file ...
  orthogonal box = (0 0 0) to (16.705398 28.934598 27.2798)
  1 by 1 by 1 MPI processor grid
  reading atoms ...
  432 atoms
  read_data CPU = 0.004 seconds
=== STAGE 1: Energy Minimization ===
Switching to 'neigh_modify every 1 delay 0 check yes' setting during minimization
No /omp style for force computation currently active
Neighbor list info ...
  update: every = 1 steps, delay = 0 steps, check = yes
  max neighbors/atom: 4000, page size: 100000
  master list distance cutoff = 8
  ghost atom cutoff = 8
  binsize = 4, bins = 5 8 7
  2 neighbor lists, perpetual/occasional/extra = 2 0 0
  (1) pair meam, perpetual
      attributes: full, newton on, omp
      pair build: full/bin/atomonly/omp
      stencil: full/bin/3d
      bin: standard
  (2) pair meam, perpetual, half/full from (1)
      attributes: half, newton on, omp
      pair build: halffull/newton/omp
      stencil: none
      bin: none
Setting up cg style minimization ...
  Unit style    : metal
  Current step  : 0
Per MPI rank memory allocation (min/avg/max) = 19.3 | 19.3 | 19.3 Mbytes
   Step          Temp          PotEng         KinEng         TotEng         Press          Volume           Lx             Ly             Lz      
         0   0             -1002.3625      0             -1002.3625     -109454.33      13186.072      16.705398      28.934598      27.2798      
       269   0             -1477.3259      0             -1477.3259     -16607.71       13186.072      16.705398      28.934598      27.2798      
Loop time of 3.32174 on 8 procs for 269 steps with 432 atoms

95.5% CPU use with 1 MPI tasks x 8 OpenMP threads

Minimization stats:
  Stopping criterion = energy tolerance
  Energy initial, next-to-last, final = 
     -1002.36247461269  -1477.32444368426  -1477.32591615106
  Force two-norm initial, final = 6.2005143 8.7238596
  Force max component initial, final = 0.58319845 4.7137134
  Final line search alpha, max atom move = 0.003765493 0.017749455
  Iterations, force evaluations = 269 604

MPI task timing breakdown:
Section |  min time  |  avg time  |  max time  |%varavg| %total
---------------------------------------------------------------
Pair    | 3.1854     | 3.1854     | 3.1854     |   0.0 | 95.89
Neigh   | 0.006534   | 0.006534   | 0.006534   |   0.0 |  0.20
Comm    | 0.006411   | 0.006411   | 0.006411   |   0.0 |  0.19
Output  | 0          | 0          | 0          |   0.0 |  0.00
Modify  | 0.11335    | 0.11335    | 0.11335    |   0.0 |  3.41
Other   |            | 0.01007    |            |       |  0.30

Nlocal:            432 ave         432 max         432 min
Histogram: 1 0 0 0 0 0 0 0 0 0
Nghost:           1804 ave        1804 max        1804 min
Histogram: 1 0 0 0 0 0 0 0 0 0
Neighs:          15776 ave       15776 max       15776 min
Histogram: 1 0 0 0 0 0 0 0 0 0
FullNghs:        31552 ave       31552 max       31552 min
Histogram: 1 0 0 0 0 0 0 0 0 0

Total # of neighbors = 31552
Ave neighs/atom = 73.037037
Neighbor list builds = 10
Dangerous builds = 0
Minimized PE/atom: -3.41973591701635 eV/atom
=== STAGE 2: NPT Equilibration at 650 K ===
No /omp style for force computation currently active
Setting up Verlet run ...
  Unit style    : metal
  Current step  : 0
  Time step     : 0.002
Per MPI rank memory allocation (min/avg/max) = 18.17 | 18.17 | 18.17 Mbytes
   Step          Temp          PotEng         KinEng         TotEng         Press          Volume           Lx             Ly             Lz      
         0   650           -1477.3259      36.21223      -1441.1137     -13674.393      13186.072      16.705398      28.934598      27.2798      
       500   860.42624     -1538.8932      47.935312     -1490.9579     -3806.0847      9638.8962      15.048531      26.06482       24.574148    
      1000   639.40709     -1591.1542      35.622087     -1555.5321      3434.2165      8516.8659      14.440368      25.011452      23.581023    
      1500   703.36645     -1603.3528      39.185335     -1564.1675      4321.2004      8228.358       14.275436      24.725781      23.31169     
      2000   651.37711     -1611.3719      36.28895      -1575.0829     -1124.7036      8141.4065      14.224974      24.638378      23.229285    
      2500   612.53102     -1613.8771      34.12479      -1579.7523      5316.7689      7958.3738      14.117565      24.452339      23.053886    
      3000   586.98554     -1612.4994      32.701623     -1579.7978     -1410.0717      8050.6953      14.171945      24.546529      23.14269     
      3500   661.08183     -1613.1771      36.829611     -1576.3474     -6226.2821      8072.2541      14.184584      24.568421      23.163329    
      4000   667.26123     -1614.3715      37.173872     -1577.1976      1253.622       7888.8015      14.076305      24.380876      22.98651     
      4500   641.2057      -1621.3165      35.722289     -1585.5942      1702.2098      7731.1022      13.981877      24.217321      22.832309    
      5000   671.62489     -1620.7952      37.416976     -1583.3782      1579.4984      7746.2103      13.990979      24.233086      22.847173    
      5500   667.16609     -1618.1231      37.168572     -1580.9546      164.1272       7634.8184      13.92359       24.116366      22.737128    
      6000   674.88021     -1623.7072      37.598334     -1586.1089      10809.258      7415.9599      13.789255      23.88369       22.517759    
      6500   698.07844     -1626.7619      38.890733     -1587.8712      1269.802       7397.5445      13.777831      23.863904      22.499104    
      7000   639.29069     -1627.3924      35.615602     -1591.7768     -2631.7468      7362.976       13.756337      23.826674      22.464004    
      7500   661.16235     -1628.8959      36.834097     -1592.0618      4531.2224      7469.8602      13.822582      23.941414      22.572181    
      8000   672.15783     -1627.9595      37.446667     -1590.5129      1150.8028      7474.8134      13.825636      23.946704      22.577169    
      8500   685.24982     -1626.39        38.176037     -1588.2139      4150.192       7469.9372      13.822629      23.941496      22.572259    
      9000   669.59189     -1627.8475      37.303716     -1590.5438      4274.6169      7413.6606      13.787829      23.881221      22.515431    
      9500   618.09998     -1628.7286      34.435044     -1594.2935     -71.575119      7343.7807      13.744372      23.805951      22.444465    
     10000   585.7098      -1628.1683      32.630551     -1595.5378      3199.5252      7331.9319      13.736976      23.793141      22.432388    
     10500   613.73507     -1630.1935      34.191869     -1596.0016     -3140.9651      7243.9759      13.681824      23.697614      22.342325    
     11000   666.11313     -1629.9297      37.10991      -1592.8198      2848.4717      7270.4316      13.69846       23.726428      22.369491    
     11500   662.13816     -1631.8021      36.88846      -1594.9136     -6503.6068      7293.7042      13.71306       23.751717      22.393334    
     12000   648.44639     -1634.3191      36.125676     -1598.1934      3416.2623      7268.3678      13.697163      23.724183      22.367374    
     12500   601.78852     -1627.5186      33.526314     -1593.9923     -3620.541       7329.4815      13.735446      23.79049       22.429889    
     13000   660.02167     -1629.4729      36.770548     -1592.7024     -5727.4796      7346.156       13.745854      23.808517      22.446885    
     13500   654.72594     -1631.1632      36.475517     -1594.6876     -1403.5473      7345.9394      13.745719      23.808283      22.446664    
     14000   663.94839     -1634.5139      36.98931      -1597.5246     -903.63748      7300.4154      13.717265      23.759         22.4002      
     14500   652.25478     -1631.8591      36.337846     -1595.5213      555.12277      7263.3277      13.693997      23.718698      22.362203    
     15000   675.69941     -1636.7981      37.643972     -1599.1541      2425.7087      7144.194       13.618713      23.588304      22.239266    
     15500   650.02366     -1634.3065      36.213548     -1598.093       3630.2893      7112.0076      13.598231      23.552827      22.205818    
     16000   650.42432     -1632.5032      36.235869     -1596.2673      421.03662      7271.0836      13.698869      23.727137      22.370159    
     16500   655.80967     -1635.7877      36.535893     -1599.2518      3820.294       7164.9611      13.631897      23.611137      22.260794    
     17000   642.95102     -1636.3618      35.819523     -1600.5423     -4130.2856      7160.5403      13.629092      23.60628       22.256215    
     17500   688.06339     -1632.8819      38.332784     -1594.5491      3251.0649      7172.9387      13.636954      23.619897      22.269053    
     18000   676.69535     -1636.1334      37.699457     -1598.434      -4332.9267      7224.2702      13.669407      23.676107      22.322048    
     18500   600.79699     -1634.0507      33.471075     -1600.5796     -4620.2158      7182.3324      13.642904      23.630204      22.27877     
     19000   659.08942     -1636.5654      36.718611     -1599.8468     -1040.4958      7033.9365      13.54829       23.466327      22.124265    
     19500   667.78971     -1635.9306      37.203314     -1598.7273     -1258.5456      7053.4181      13.560787      23.487971      22.144672    
     20000   611.12214     -1634.4533      34.046301     -1600.407       3725.6229      6970.2754      13.507293      23.395317      22.057317    
Loop time of 250.296 on 8 procs for 20000 steps with 432 atoms

Performance: 13.808 ns/day, 1.738 hours/ns, 79.906 timesteps/s, 34.519 katom-step/s
93.3% CPU use with 1 MPI tasks x 8 OpenMP threads

MPI task timing breakdown:
Section |  min time  |  avg time  |  max time  |%varavg| %total
---------------------------------------------------------------
Pair    | 222.43     | 222.43     | 222.43     |   0.0 | 88.87
Neigh   | 0.082544   | 0.082544   | 0.082544   |   0.0 |  0.03
Comm    | 0.28702    | 0.28702    | 0.28702    |   0.0 |  0.11
Output  | 0.003642   | 0.003642   | 0.003642   |   0.0 |  0.00
Modify  | 27.424     | 27.424     | 27.424     |   0.0 | 10.96
Other   |            | 0.06613    |            |       |  0.03

Nlocal:            432 ave         432 max         432 min
Histogram: 1 0 0 0 0 0 0 0 0 0
Nghost:           2436 ave        2436 max        2436 min
Histogram: 1 0 0 0 0 0 0 0 0 0
Neighs:          29423 ave       29423 max       29423 min
Histogram: 1 0 0 0 0 0 0 0 0 0
FullNghs:        58846 ave       58846 max       58846 min
Histogram: 1 0 0 0 0 0 0 0 0 0

Total # of neighbors = 58846
Ave neighs/atom = 136.21759
Neighbor list builds = 101
Dangerous builds = 0
=== STAGE 3: NPT Production at 650 K ===
No /omp style for force computation currently active
Setting up Verlet run ...
  Unit style    : metal
  Current step  : 0
  Time step     : 0.001
Per MPI rank memory allocation (min/avg/max) = 18.69 | 18.69 | 18.69 Mbytes
   Step          Temp          PotEng         KinEng         TotEng         Press          Volume           Lx             Ly             Lz      
         0   611.12214     -1634.4533      34.046301     -1600.407       3725.6229      6970.2754      13.507293      23.395317      22.057317    
       500   670.28572     -1634.3748      37.34237      -1597.0324     -428.29594      7098.3571      13.589525      23.537748      22.191602    
      1000   668.11724     -1635.4596      37.221562     -1598.238       1393.3333      6980.6506      13.513991      23.40692       22.068255    
      1500   615.95156     -1636.0545      34.315353     -1601.7391      4787.1533      7025.4694      13.542852      23.456907      22.115384    
      2000   677.07109     -1634.1231      37.72039      -1596.4027      1784.2283      6997.6312      13.52494       23.425884      22.086135    
      2500   719.9558      -1637.7353      40.109546     -1597.6258      2553.1221      6920.8964      13.475321      23.339941      22.005107    
      3000   637.53609     -1636.8559      35.517851     -1601.338       4686.6306      6907.4594      13.466595      23.324826      21.990857    
      3500   634.73954     -1640.6996      35.362052     -1605.3375     -587.01195      6998.7756      13.525677      23.42716       22.087339    
      4000   618.78985     -1638.6099      34.473477     -1604.1364     -1168.8         7024.499       13.542228      23.455827      22.114366    
      4500   619.90071     -1637.635       34.535365     -1603.0996      8908.4567      7016.6149      13.53716       23.447048      22.106089    
      5000   615.44213     -1638.5212      34.286972     -1604.2342      2143.2111      6987.0001      13.518087      23.414014      22.074944    
      5500   664.54231     -1638.5701      37.022398     -1601.5477     -915.59641      6971.2643      13.507932      23.396424      22.05836     
      6000   671.44004     -1638.5603      37.406678     -1601.1536      7279.9985      6849.914       13.429094      23.259873      21.929618    
      6500   656.60826     -1636.9578      36.580383     -1600.3774      1798.4203      6990.8674      13.520581      23.418333      22.079016    
      7000   643.42643     -1640.6973      35.846009     -1604.8513      831.21212      6981.5388      13.514564      23.407912      22.069191    
      7500   644.76099     -1639.9442      35.920358     -1604.0238     -6947.1224      7001.1916      13.527234      23.429856      22.08988     
      8000   637.74992     -1637.2078      35.529764     -1601.678       4672.3314      6963.3648      13.502827      23.387583      22.050025    
      8500   623.54022     -1639.6628      34.738126     -1604.9246     -2444.086       7080.3643      13.578033      23.517844      22.172836    
      9000   656.39739     -1641.8046      36.568635     -1605.236       6261.7297      6972.2522      13.50857       23.397529      22.059402    
      9500   642.44905     -1638.9539      35.791558     -1603.1623      2929.6134      6967.6552      13.5056        23.392386      22.054553    
     10000   672.90891     -1638.4838      37.488511     -1600.9953     -5121.1017      7020.1451      13.53943       23.45098       22.109796    
     10500   612.79882     -1636.8031      34.13971      -1602.6634     -1929.3784      7015.6314      13.536527      23.445953      22.105056    
     11000   639.30929     -1641.8062      35.616638     -1606.1895      3062.6039      6937.7007      13.486218      23.358815      22.022902    
     11500   645.43593     -1640.5894      35.95796      -1604.6315      2520.2143      6935.6494      13.484889      23.356513      22.020732    
     12000   669.28352     -1640.5266      37.286536     -1603.24       -287.03124      6986.3065      13.51764       23.413239      22.074214    
     12500   692.07326     -1643.1161      38.556178     -1604.56        243.51995      6929.7482      13.481063      23.349887      22.014484    
     13000   663.06929     -1645.9598      36.940335     -1609.0195     -644.2893       6924.9168      13.47793       23.344459      22.009367    
     13500   683.33352     -1643.0917      38.069277     -1605.0224     -922.59713      6848.3324      13.42806       23.258083      21.92793     
     14000   645.41812     -1640.1772      35.956968     -1604.2202     -1407.9951      6985.4506      13.517088      23.412283      22.073312    
     14500   638.5018      -1641.1835      35.571652     -1605.6118      776.716        6945.1961      13.491073      23.367225      22.030831    
     15000   637.52057     -1642.8209      35.516986     -1607.3039     -1444.2199      6934.3081      13.48402       23.355007      22.019312    
     15500   623.9531      -1643.1976      34.761128     -1608.4365      3701.0574      6939.0301      13.48708       23.360307      22.024309    
     16000   668.2404      -1641.5171      37.228423     -1604.2887     -7983.6431      6998.7657      13.525671      23.427149      22.087328    
     16500   684.89672     -1640.3596      38.156365     -1602.2032     -1796.6791      6988.052       13.518766      23.415189      22.076052    
     17000   613.85568     -1640.7741      34.198589     -1606.5756     -5088.1288      6954.4582      13.497068      23.377608      22.04062     
     17500   625.14233     -1642.6747      34.827381     -1607.8473     -5172.5761      7021.169       13.540088      23.45212       22.110871    
     18000   652.62207     -1641.9731      36.358308     -1605.6148      122.67309      6918.2228      13.473586      23.336935      22.002273    
     18500   654.63616     -1638.8276      36.470515     -1602.3571      4749.6128      6920.1817      13.474857      23.339137      22.004349    
     19000   629.54076     -1640.3211      35.072423     -1605.2487     -3598.9658      7017.4848      13.537719      23.448017      22.107003    
     19500   608.72933     -1641.4151      33.912994     -1607.5021      1699.5305      6939.1568      13.487162      23.36045       22.024443    
     20000   658.52756     -1640.9275      36.687309     -1604.2401      6473.2744      6927.3408      13.479502      23.347183      22.011935    
     20500   663.84817     -1643.1666      36.983727     -1606.1828      1466.448       6951.0536      13.494865      23.373792      22.037022    
     21000   595.67411     -1642.0361      33.185674     -1608.8505      2878.2141      6915.6841      13.471937      23.33408       21.999581    
     21500   650.25602     -1639.3734      36.226493     -1603.1469     -5908.6825      6979.5485      13.51328       23.405688      22.067094    
     22000   652.14506     -1643.3617      36.331734     -1607.0299      8774.7752      6831.9269      13.417329      23.239496      21.910407    
     22500   649.78515     -1644.0638      36.20026      -1607.8635      2189.7314      6975.9086      13.510931      23.401618      22.063257    
     23000   638.0842      -1641.1141      35.548387     -1605.5657      2178.9099      6945.6597      13.491374      23.367745      22.031321    
     23500   663.233       -1642.1274      36.949455     -1605.178       1847.4994      6903.8698      13.464261      23.320785      21.987047    
     24000   636.57541     -1646.7178      35.46433      -1611.2535     -794.6458       6886.9028      13.453222      23.301665      21.96902     
     24500   654.2993      -1642.2894      36.451748     -1605.8377      3897.2387      6931.3957      13.482132      23.351737      22.016229    
     25000   656.19023     -1641.2409      36.557094     -1604.6838     -61.597442      6974.0043      13.509701      23.399489      22.061249    
     25500   632.83893     -1645.4201      35.256167     -1610.1639     -2322.724       6874.3513      13.445044      23.2875        21.955666    
     26000   662.48197     -1641.9512      36.907614     -1605.0436     -1087.5681      6891.324       13.456101      23.30665       21.97372     
     26500   684.09711     -1641.7079      38.111818     -1603.5961      146.6766       6905.6575      13.465423      23.322797      21.988944    
     27000   689.6603      -1645.6653      38.42175      -1607.2435     -3598.4171      6903.3701      13.463936      23.320222      21.986516    
     27500   620.51114     -1641.4642      34.569372     -1606.8948     -3010.7375      6908.2083      13.467081      23.325669      21.991651    
     28000   658.57713     -1642.3211      36.690071     -1605.6311      424.646        6944.0149      13.490309      23.3659        22.029582    
     28500   631.4171      -1643.587       35.176956     -1608.4101      789.77589      6883.7774      13.451187      23.298139      21.965696    
     29000   621.60892     -1643.4397      34.630531     -1608.8092     -1197.3167      6875.3235      13.445678      23.288598      21.956701    
     29500   675.72574     -1643.3251      37.645439     -1605.6797     -3305.2691      6887.8078      13.453812      23.302685      21.969982    
     30000   675.50531     -1643.1751      37.633159     -1605.5419      3002.7222      6937.629       13.486172      23.358735      22.022827    
     30500   689.24599     -1642.8161      38.398668     -1604.4174     -4526.2589      6944.2571      13.490465      23.366171      22.029838    
     31000   668.77108     -1645.1531      37.257987     -1607.8951      3949.9367      6853.6183      13.431514      23.264065      21.933571    
     31500   712.83049     -1641.5962      39.712587     -1601.8836      1092.5387      6973.1862      13.509173      23.398574      22.060387    
     32000   675.18743     -1643.3523      37.61545      -1605.7369     -4199.0349      6891.1046      13.455958      23.306403      21.973487    
     32500   642.99339     -1642.7613      35.821883     -1606.9394      1765.6088      6860.7136      13.436148      23.27209       21.941137    
     33000   657.80462     -1643.4049      36.647034     -1606.7579      3695.9703      6910.6945      13.468697      23.328467      21.994289    
     33500   683.72119     -1641.7701      38.090875     -1603.6792     -6525.2062      6914.2091      13.470979      23.332421      21.998017    
     34000   671.76088     -1643.3064      37.424553     -1605.8819     -7560.4213      6922.6594      13.476465      23.341922      22.006975    
     34500   624.54274     -1641.6499      34.793977     -1606.8559     -4647.1967      6961.4259      13.501574      23.385412      22.047978    
     35000   649.22918     -1645.3293      36.169287     -1609.16       -1724.8975      6916.2674      13.472316      23.334736      22.0002      
     35500   652.47934     -1646.5091      36.350356     -1610.1588     -1154.2575      6859.9858      13.435672      23.271267      21.940361    
     36000   695.6257      -1644.5711      38.754088     -1605.817       1066.4693      6832.5191      13.417717      23.240167      21.91104     
     36500   702.1179      -1643.1608      39.115776     -1604.045      -5138.9842      6956.8933      13.498643      23.380336      22.043192    
     37000   665.89036     -1642.943       37.0975       -1605.8455      1519.4995      6816.5053      13.407226      23.221997      21.893908    
     37500   641.99176     -1644.0593      35.766082     -1608.2932     -4234.491       6877.4061      13.447036      23.290949      21.958917    
     38000   680.438       -1642.9513      37.907965     -1605.0433     -6410.6903      6966.6734      13.504966      23.391287      22.053517    
     38500   649.66893     -1644.9043      36.193785     -1608.7106     -4037.9606      6848.8226      13.428381      23.258637      21.928454    
     39000   653.08532     -1646.463       36.384116     -1610.0789     -5689.314       6804.0253      13.399039      23.207816      21.880539    
     39500   651.50569     -1645.599       36.296114     -1609.3029     -904.90822      6780.8819      13.383829      23.181473      21.855702    
     40000   678.78638     -1645.3852      37.815951     -1607.5692     -5695.4022      6824.0501      13.412171      23.230561      21.901983    
     40500   648.86793     -1643.0469      36.149161     -1606.8977      6007.0992      6727.3532      13.348519      23.120313      21.79804     
     41000   642.49162     -1644.5526      35.793929     -1608.7587     -3144.0056      6841.4096      13.423534      23.250243      21.920539    
     41500   676.85242     -1645.0275      37.708208     -1607.3193      2122.877       6796.3375      13.39399       23.199072      21.872295    
     42000   650.67429     -1643.0652      36.249795     -1606.8154     -1384.63        6781.9495      13.384532      23.182689      21.856849    
     42500   581.89923     -1645.0322      32.418259     -1612.6139      4376.2875      6718.919       13.342938      23.110647      21.788927    
     43000   663.22157     -1644.1838      36.948818     -1607.235      -677.99993      6789.7728      13.389676      23.1916        21.86525     
     43500   671.22045     -1644.1852      37.394445     -1606.7907      1973.2083      6762.6604      13.37183       23.16069       21.836108    
     44000   614.72595     -1645.1915      34.247072     -1610.9444      373.93655      6785.7584      13.387037      23.187028      21.86094     
     44500   697.72949     -1645.7089      38.871293     -1606.8376     -1220.5025      6763.3196      13.372265      23.161442      21.836817    
     45000   689.44791     -1645.0108      38.409917     -1606.6009     -5510.543       6747.6187      13.361909      23.143505      21.819906    
     45500   660.01954     -1643.9775      36.770429     -1607.207       433.27399      6645.5241      13.294176      23.026188      21.709298    
     46000   641.18537     -1648.0003      35.721156     -1612.2792     -975.78799      6698.4074      13.329346      23.087105      21.766732    
     46500   631.19572     -1644.8         35.164622     -1609.6354      1744.7503      6766.4254      13.374312      23.164987      21.840159    
     47000   666.91984     -1646.3791      37.154853     -1609.2243     -860.89244      6752.5339      13.365153      23.149124      21.825203    
     47500   680.55883     -1646.2944      37.914697     -1608.3797     -2017.3555      6781.6532      13.384337      23.182352      21.856531    
     48000   632.43162     -1646.0445      35.233476     -1610.811       947.92789      6705.8894      13.334307      23.095698      21.774833    
     48500   636.71415     -1645.1056      35.47206      -1609.6335      796.85027      6719.3879      13.343248      23.111184      21.789434    
     49000   614.75832     -1645.7068      34.248876     -1611.458       4072.163       6661.6957      13.304951      23.04485       21.726893    
     49500   639.91481     -1645.851       35.650372     -1610.2007     -2029.9779      6660.383       13.304077      23.043337      21.725466    
     50000   658.07687     -1643.7116      36.662201     -1607.0494      138.64159      6724.4752      13.346615      23.117015      21.794931    
Loop time of 673.081 on 8 procs for 50000 steps with 432 atoms

Performance: 6.418 ns/day, 3.739 hours/ns, 74.285 timesteps/s, 32.091 katom-step/s
93.6% CPU use with 1 MPI tasks x 8 OpenMP threads

MPI task timing breakdown:
Section |  min time  |  avg time  |  max time  |%varavg| %total
---------------------------------------------------------------
Pair    | 603.19     | 603.19     | 603.19     |   0.0 | 89.62
Neigh   | 0.073928   | 0.073928   | 0.073928   |   0.0 |  0.01
Comm    | 0.69866    | 0.69866    | 0.69866    |   0.0 |  0.10
Output  | 0.008257   | 0.008257   | 0.008257   |   0.0 |  0.00
Modify  | 68.964     | 68.964     | 68.964     |   0.0 | 10.25
Other   |            | 0.1413     |            |       |  0.02

Nlocal:            432 ave         432 max         432 min
Histogram: 1 0 0 0 0 0 0 0 0 0
Nghost:           2483 ave        2483 max        2483 min
Histogram: 1 0 0 0 0 0 0 0 0 0
Neighs:          31078 ave       31078 max       31078 min
Histogram: 1 0 0 0 0 0 0 0 0 0
FullNghs:        62156 ave       62156 max       62156 min
Histogram: 1 0 0 0 0 0 0 0 0 0

Total # of neighbors = 62156
Ave neighs/atom = 143.87963
Neighbor list builds = 84
Dangerous builds = 0

=== FINAL RESULTS: HCP at 650 K ===
Atoms: 432 | PE/atom: -3.80849181059198 eV/atom
WARNING: Detected non-ASCII characters in input. Will try to continue by replacing with ASCII equivalents where known. (src/input.cpp:479)
Volume: 6724.47519718484 …³ | Area: 308.533904910135 ²
==========================================
HCP 650 432 -3.80849181059198 6724.47519718484 13.3466150420571 23.1170153584186 21.794931092398 308.533904910135
Simulation complete!
Total wall time: 0:15:26
