LAMMPS (10 Sep 2025)
  using 8 OpenMP thread(s) per MPI task
Loaded 1 plugins from C:\Users\kumar\AppData\Local\LAMMPS 64-bit 10Sep2025\plugins
using multi-threaded neighbor list subroutines
Reading data file ...
  orthogonal box = (0 0 0) to (23.124 23.124 23.124)
  1 by 1 by 1 MPI processor grid
  reading atoms ...
  864 atoms
  read_data CPU = 0.006 seconds
=== STAGE 1: Energy Minimization ===
Switching to 'neigh_modify every 1 delay 0 check yes' setting during minimization
No /omp style for force computation currently active
Neighbor list info ...
  update: every = 1 steps, delay = 0 steps, check = yes
  max neighbors/atom: 4000, page size: 100000
  master list distance cutoff = 8
  ghost atom cutoff = 8
  binsize = 4, bins = 6 6 6
  2 neighbor lists, perpetual/occasional/extra = 2 0 0
  (1) pair meam, perpetual
      attributes: full, newton on, omp
      pair build: full/bin/atomonly/omp
      stencil: full/bin/3d
      bin: standard
  (2) pair meam, perpetual, half/full from (1)
      attributes: half, newton on, omp
      pair build: halffull/newton/omp
      stencil: none
      bin: none
Setting up cg style minimization ...
  Unit style    : metal
  Current step  : 0
Per MPI rank memory allocation (min/avg/max) = 20.91 | 20.91 | 20.91 Mbytes
   Step          Temp          PotEng         KinEng         TotEng         Press          Volume           Lx             Ly             Lz      
         0   0             -3142.4322      0             -3142.4322     -32578.606      12364.851      23.124         23.124         23.124       
        12   0             -3231.4867      0             -3231.4867     -36742.402      12364.851      23.124         23.124         23.124       
Loop time of 0.61878 on 8 procs for 12 steps with 864 atoms

106.1% CPU use with 1 MPI tasks x 8 OpenMP threads

Minimization stats:
  Stopping criterion = energy tolerance
  Energy initial, next-to-last, final = 
      -3142.4322077761  -3231.48577904013  -3231.48667589571
  Force two-norm initial, final = 61.331761 23.365577
  Force max component initial, final = 5.3387426 7.6443407
  Final line search alpha, max atom move = 0.048388406 0.36989746
  Iterations, force evaluations = 12 24

MPI task timing breakdown:
Section |  min time  |  avg time  |  max time  |%varavg| %total
---------------------------------------------------------------
Pair    | 0.61355    | 0.61355    | 0.61355    |   0.0 | 99.15
Neigh   | 0          | 0          | 0          |   0.0 |  0.00
Comm    | 0.000667   | 0.000667   | 0.000667   |   0.0 |  0.11
Output  | 0          | 0          | 0          |   0.0 |  0.00
Modify  | 0.003811   | 0.003811   | 0.003811   |   0.0 |  0.62
Other   |            | 0.000757   |            |       |  0.12

Nlocal:            864 ave         864 max         864 min
Histogram: 1 0 0 0 0 0 0 0 0 0
Nghost:           3767 ave        3767 max        3767 min
Histogram: 1 0 0 0 0 0 0 0 0 0
Neighs:          60480 ave       60480 max       60480 min
Histogram: 1 0 0 0 0 0 0 0 0 0
FullNghs:       120960 ave      120960 max      120960 min
Histogram: 1 0 0 0 0 0 0 0 0 0

Total # of neighbors = 120960
Ave neighs/atom = 140
Neighbor list builds = 0
Dangerous builds = 0
Minimized PE/atom: -3.74014661562004 eV/atom
=== STAGE 2: NPT Equilibration at 650 K ===
No /omp style for force computation currently active
Setting up Verlet run ...
  Unit style    : metal
  Current step  : 0
  Time step     : 0.002
Per MPI rank memory allocation (min/avg/max) = 19.82 | 19.82 | 19.82 Mbytes
   Step          Temp          PotEng         KinEng         TotEng         Press          Volume           Lx             Ly             Lz      
         0   650           -3231.4867      72.508478     -3158.9782     -30478.874      12364.851      23.124         23.124         23.124       
       500   669.94712     -3183.2561      74.73361      -3108.5225      4659.4081      12049.718      22.925859      22.925859      22.925859    
      1000   626.50679     -3188.9433      69.887776     -3119.0555      971.22553      12133.518      22.978883      22.978883      22.978883    
      1500   640.38085     -3189.3265      71.435447     -3117.8911      1488.1475      12199.273      23.020318      23.020318      23.020318    
      2000   674.18761     -3191.741       75.206643     -3116.5344     -2055.1403      12227.289      23.037927      23.037927      23.037927    
      2500   620.61074     -3195.4942      69.230062     -3126.2641     -2283.6921      12237.718      23.044475      23.044475      23.044475    
      3000   662.58982     -3200.1598      73.912892     -3126.2469      1036.9909      12171.64       23.002923      23.002923      23.002923    
      3500   648.01571     -3204.5274      72.287127     -3132.2403     -2783.3621      12285.985      23.074732      23.074732      23.074732    
      4000   688.31885     -3213.0406      76.783004     -3136.2576      851.83687      12170.945      23.002485      23.002485      23.002485    
      4500   653.60789     -3208.306       72.910944     -3135.395       367.8008       12223.464      23.035524      23.035524      23.035524    
      5000   677.12483     -3206.512       75.534294     -3130.9777      2758.4101      12160.498      22.995902      22.995902      22.995902    
      5500   629.25568     -3213.5953      70.194418     -3143.4009     -4490.7658      12224.609      23.036243      23.036243      23.036243    
      6000   650.14869     -3214.688       72.525065     -3142.163      -2303.1611      12230.585      23.039997      23.039997      23.039997    
      6500   635.94662     -3218.4375      70.940802     -3147.4967     -309.92027      12223.87       23.035779      23.035779      23.035779    
      7000   637.18028     -3221.827       71.078419     -3150.7486      406.76337      12192.782      23.016234      23.016234      23.016234    
      7500   664.14899     -3220.3036      74.086819     -3146.2168      1970.2413      12192.922      23.016322      23.016322      23.016322    
      8000   647.73382     -3219.7437      72.255682     -3147.488       146.76857      12263.583      23.060698      23.060698      23.060698    
      8500   660.3911      -3223.0771      73.667621     -3149.4094      1600.2153      12183.52       23.010405      23.010405      23.010405    
      9000   637.1999      -3217.7369      71.080607     -3146.6563     -1638.4715      12296.475      23.081297      23.081297      23.081297    
      9500   636.57905     -3226.5774      71.011351     -3155.566       192.24025      12179.536      23.007896      23.007896      23.007896    
     10000   672.37375     -3225.7026      75.004303     -3150.6983     -529.57202      12175.635      23.00544       23.00544       23.00544     
     10500   643.35153     -3225.5799      71.766831     -3153.8131     -4199.184       12267.628      23.063234      23.063234      23.063234    
     11000   633.48398     -3230.5166      70.666091     -3159.8505     -215.08088      12199.759      23.020624      23.020624      23.020624    
     11500   667.6327      -3231.2489      74.475432     -3156.7735      1926.0443      12173.726      23.004238      23.004238      23.004238    
     12000   661.79265     -3227.5783      73.823966     -3153.7543     -4507.4161      12291.828      23.078389      23.078389      23.078389    
     12500   651.44311     -3228.2791      72.669459     -3155.6096     -820.45751      12217.638      23.031864      23.031864      23.031864    
     13000   649.42526     -3237.0335      72.444365     -3164.5891      269.1769       12139.057      22.982379      22.982379      22.982379    
     13500   660.93671     -3232.7699      73.728484     -3159.0414      324.77536      12249.64       23.051956      23.051956      23.051956    
     14000   628.53247     -3231.8138      70.113743     -3161.7         662.40808      12185.328      23.011543      23.011543      23.011543    
     14500   634.82473     -3231.1906      70.815654     -3160.375      -2072.6754      12260.303      23.058643      23.058643      23.058643    
     15000   631.24035     -3235.0171      70.415811     -3164.6012      3525.533       12118.09       22.96914       22.96914       22.96914     
     15500   647.56017     -3234.5079      72.236312     -3162.2715      2589.2468      12186.272      23.012137      23.012137      23.012137    
     16000   668.40212     -3230.1867      74.561263     -3155.6255     -1088.5888      12203.04       23.022687      23.022687      23.022687    
     16500   655.11749     -3236.0839      73.079342     -3163.0046      2828.7828      12149.213      22.988787      22.988787      22.988787    
     17000   666.78868     -3233.9748      74.381281     -3159.5935     -4614.7126      12294.314      23.079945      23.079945      23.079945    
     17500   644.76068     -3235.3553      71.924024     -3163.4313      2038.2139      12148.743      22.98849       22.98849       22.98849     
     18000   652.11077     -3234.4803      72.743938     -3161.7364     -99.170784      12206.365      23.024778      23.024778      23.024778    
     18500   643.45351     -3236.5308      71.778208     -3164.7526      212.64347      12158.378      22.994566      22.994566      22.994566    
     19000   652.72588     -3240.3128      72.812554     -3167.5002     -688.04324      12170.565      23.002246      23.002246      23.002246    
     19500   652.52817     -3236.2555      72.790499     -3163.465       4147.6573      12144.372      22.985733      22.985733      22.985733    
     20000   673.56736     -3236.19        75.137453     -3161.0525     -1539.7558      12249.844      23.052084      23.052084      23.052084    
Loop time of 1742.23 on 8 procs for 20000 steps with 864 atoms

Performance: 1.984 ns/day, 12.099 hours/ns, 11.480 timesteps/s, 9.918 katom-step/s
26.5% CPU use with 1 MPI tasks x 8 OpenMP threads

MPI task timing breakdown:
Section |  min time  |  avg time  |  max time  |%varavg| %total
---------------------------------------------------------------
Pair    | 1714.9     | 1714.9     | 1714.9     |   0.0 | 98.43
Neigh   | 0.17458    | 0.17458    | 0.17458    |   0.0 |  0.01
Comm    | 0.45612    | 0.45612    | 0.45612    |   0.0 |  0.03
Output  | 0.004122   | 0.004122   | 0.004122   |   0.0 |  0.00
Modify  | 26.558     | 26.558     | 26.558     |   0.0 |  1.52
Other   |            | 0.1041     |            |       |  0.01

Nlocal:            864 ave         864 max         864 min
Histogram: 1 0 0 0 0 0 0 0 0 0
Nghost:           3331 ave        3331 max        3331 min
Histogram: 1 0 0 0 0 0 0 0 0 0
Neighs:          65226 ave       65226 max       65226 min
Histogram: 1 0 0 0 0 0 0 0 0 0
FullNghs:       130452 ave      130452 max      130452 min
Histogram: 1 0 0 0 0 0 0 0 0 0

Total # of neighbors = 130452
Ave neighs/atom = 150.98611
Neighbor list builds = 100
Dangerous builds = 0
=== STAGE 3: NPT Production at 650 K ===
No /omp style for force computation currently active
Setting up Verlet run ...
  Unit style    : metal
  Current step  : 0
  Time step     : 0.001
Per MPI rank memory allocation (min/avg/max) = 19.93 | 19.93 | 19.93 Mbytes
   Step          Temp          PotEng         KinEng         TotEng         Press          Volume           Lx             Ly             Lz      
         0   673.56736     -3236.19        75.137453     -3161.0525     -1539.7558      12249.844      23.052084      23.052084      23.052084    
       500   664.80244     -3234.6466      74.159712     -3160.4869      3157.4437      12130.967      22.977273      22.977273      22.977273    
      1000   633.21592     -3240.3387      70.636189     -3169.7025     -2439.1412      12234.648      23.042548      23.042548      23.042548    
      1500   665.39312     -3241.161       74.225604     -3166.9354     -359.98839      12223.008      23.035238      23.035238      23.035238    
      2000   644.54858     -3237.68        71.900364     -3165.7796      1348.4225      12209.472      23.026732      23.026732      23.026732    
      2500   643.73847     -3239.5478      71.809995     -3167.7378     -3477.633       12274.216      23.067361      23.067361      23.067361    
      3000   661.92677     -3235.6007      73.838928     -3161.7617      3099.1782      12196.152      23.018354      23.018354      23.018354    
      3500   696.5196      -3237.1912      77.69781      -3159.4934     -4129.8478      12277.786      23.069598      23.069598      23.069598    
      4000   669.02628     -3238.8915      74.630888     -3164.2606     -504.47916      12244.211      23.048549      23.048549      23.048549    
      4500   649.97813     -3235.0189      72.506039     -3162.5128      2504.9873      12164.282      22.998287      22.998287      22.998287    
      5000   663.95353     -3240.9985      74.065016     -3166.9334     -22.436298      12173.321      23.003982      23.003982      23.003982    
      5500   641.19569     -3240.136       71.526344     -3168.6097     -1120.3998      12270.744      23.065186      23.065186      23.065186    
      6000   623.94561     -3238.4496      69.602072     -3168.8475      1721.1153      12219.709      23.033165      23.033165      23.033165    
      6500   654.27439     -3237.6161      72.985293     -3164.6308      183.22006      12229.283      23.039179      23.039179      23.039179    
      7000   662.4879      -3238.4504      73.901522     -3164.5489      715.44863      12246.234      23.049819      23.049819      23.049819    
      7500   633.41633     -3238.6043      70.658545     -3167.9457     -1669.6452      12228.233      23.038519      23.038519      23.038519    
      8000   672.76595     -3235.373       75.048055     -3160.325      -2260.3287      12273.592      23.06697       23.06697       23.06697     
      8500   663.76045     -3236.7263      74.043477     -3162.6828     -939.41087      12255.361      23.055544      23.055544      23.055544    
      9000   652.68639     -3239.9728      72.808149     -3167.1646      2190.5736      12197.758      23.019365      23.019365      23.019365    
      9500   639.07632     -3238.5822      71.289925     -3167.2922     -2121.3468      12247.337      23.050511      23.050511      23.050511    
     10000   663.96162     -3244.6989      74.065918     -3170.633       5092.2838      12127.582      22.975135      22.975135      22.975135    
     10500   656.39163     -3243.3561      73.221475     -3170.1346      3505.3827      12189.367      23.014085      23.014085      23.014085    
     11000   666.64077     -3241.4005      74.364781     -3167.0357     -1824.8999      12257.118      23.056645      23.056645      23.056645    
     11500   686.62795     -3239.1063      76.594381     -3162.5119      6266.3373      12153.239      22.991326      22.991326      22.991326    
     12000   642.52946     -3243.7273      71.675128     -3172.0522     -4743.3972      12318.751      23.095226      23.095226      23.095226    
     12500   647.39984     -3237.755       72.218427     -3165.5366      2946.0746      12180.613      23.008575      23.008575      23.008575    
     13000   653.63644     -3242.6058      72.914128     -3169.6917      314.01174      12257.519      23.056897      23.056897      23.056897    
     13500   625.82464     -3240.3212      69.81168      -3170.5095      2140.623       12172.912      23.003725      23.003725      23.003725    
     14000   646.43064     -3240.8971      72.110311     -3168.7868     -491.22629      12253.055      23.054098      23.054098      23.054098    
     14500   664.06307     -3238.2213      74.077235     -3164.1441      1100.1513      12246.597      23.050047      23.050047      23.050047    
     15000   640.23695     -3244.3169      71.419396     -3172.8975      104.5042       12246.007      23.049677      23.049677      23.049677    
     15500   643.16337     -3244.1138      71.745842     -3172.3679      2483.955       12172.301      23.00334       23.00334       23.00334     
     16000   661.54395     -3242.4084      73.796224     -3168.6122     -1915.2618      12268.495      23.063777      23.063777      23.063777    
     16500   659.01755     -3247.987       73.514399     -3174.4726     -1224.7874      12210.418      23.027326      23.027326      23.027326    
     17000   666.70869     -3245.6668      74.372358     -3171.2945     -2626.1324      12225.541      23.036829      23.036829      23.036829    
     17500   651.24502     -3243.6363      72.647362     -3170.9889      4349.0125      12127.958      22.975373      22.975373      22.975373    
     18000   648.39149     -3243.6684      72.329046     -3171.3393     -6089.8495      12339.783      23.108363      23.108363      23.108363    
     18500   661.56137     -3245.1637      73.798167     -3171.3656      5777.657       12151.249      22.990071      22.990071      22.990071    
     19000   635.99176     -3248.0665      70.945838     -3177.1207     -43.118122      12230.421      23.039893      23.039893      23.039893    
     19500   658.50324     -3246.0559      73.457028     -3172.5989     -776.44221      12256.177      23.056056      23.056056      23.056056    
     20000   635.65374     -3242.4373      70.908131     -3171.5291      5409.8876      12187.456      23.012882      23.012882      23.012882    
     20500   645.68293     -3250.0932      72.026902     -3178.0663      296.53721      12193.57       23.01673       23.01673       23.01673     
     21000   627.36255     -3247.0299      69.983236     -3177.0466     -2481.0905      12213.111      23.029019      23.029019      23.029019    
     21500   599.59518     -3251.1873      66.885745     -3184.3015     -2707.2149      12218.888      23.032649      23.032649      23.032649    
     22000   660.41323     -3245.7981      73.67009      -3172.128       4164.2588      12150.26       22.989447      22.989447      22.989447    
     22500   664.95083     -3247.2789      74.176265     -3173.1026     -4782.9732      12302.753      23.085225      23.085225      23.085225    
     23000   665.42864     -3248.9739      74.229566     -3174.7444      2170.8078      12175.276      23.005214      23.005214      23.005214    
     23500   670.68933     -3247.6006      74.816405     -3172.7842      917.41596      12184.406      23.010963      23.010963      23.010963    
     24000   637.34251     -3251.6737      71.096516     -3180.5772     -1793.7196      12226.687      23.037549      23.037549      23.037549    
     24500   626.97606     -3250.1936      69.940123     -3180.2535      3307.2706      12152.101      22.990608      22.990608      22.990608    
     25000   648.72874     -3251.8672      72.366667     -3179.5005      687.14817      12182.327      23.009654      23.009654      23.009654    
     25500   646.97424     -3249.3634      72.17095      -3177.1924     -488.04826      12185.43       23.011607      23.011607      23.011607    
     26000   651.24088     -3248.1809      72.6469       -3175.534       1338.5061      12151.009      22.989919      22.989919      22.989919    
     26500   648.49373     -3249.9209      72.340452     -3177.5805     -128.02749      12182.905      23.010018      23.010018      23.010018    
     27000   645.62659     -3253.2552      72.020618     -3181.2346     -3842.1756      12250.072      23.052226      23.052226      23.052226    
     27500   680.35282     -3250.6551      75.894381     -3174.7608      3489.1072      12101.137      22.958423      22.958423      22.958423    
     28000   662.86262     -3249.3243      73.943323     -3175.381      -2737.1707      12264          23.06096       23.06096       23.06096     
     28500   669.9251      -3254.3432      74.731153     -3179.6121      5186.0318      12129.644      22.976437      22.976437      22.976437    
     29000   648.85566     -3249.9875      72.380825     -3177.6066     -4318.1622      12270.683      23.065148      23.065148      23.065148    
     29500   648.67465     -3253.8713      72.360634     -3181.5107      5431.9058      12120.359      22.970573      22.970573      22.970573    
     30000   644.60469     -3251.8056      71.906623     -3179.8989     -1858.804       12215.759      23.030683      23.030683      23.030683    
     30500   663.53927     -3256.2872      74.018804     -3182.2684     -436.01549      12165.691      22.999175      22.999175      22.999175    
     31000   632.96824     -3254.3662      70.60856      -3183.7577      405.95015      12197.37       23.019121      23.019121      23.019121    
     31500   634.5635      -3250.1401      70.786513     -3179.3536     -877.06377      12249.595      23.051927      23.051927      23.051927    
     32000   657.35521     -3252.9974      73.328964     -3179.6685      1936.0677      12154.43       22.992077      22.992077      22.992077    
     32500   613.03804     -3254.3655      68.385316     -3185.9802      1696.7501      12170.326      23.002096      23.002096      23.002096    
     33000   653.36004     -3250.8174      72.883296     -3177.9341     -1359.3884      12216.722      23.031288      23.031288      23.031288    
     33500   640.73789     -3251.2509      71.475276     -3179.7756      2077.2284      12155.297      22.992624      22.992624      22.992624    
     34000   621.52777     -3251.8146      69.332358     -3182.4822      112.4547       12182.334      23.009658      23.009658      23.009658    
     34500   639.41168     -3255.0715      71.327336     -3183.7442      2175.1563      12155.302      22.992627      22.992627      22.992627    
     35000   658.96092     -3253.1451      73.508082     -3179.637       1274.0049      12179.539      23.007898      23.007898      23.007898    
     35500   653.20593     -3253.8298      72.866104     -3180.9637      240.43045      12169.347      23.001479      23.001479      23.001479    
     36000   617.55903     -3252.827       68.889639     -3183.9373      3519.081       12158.569      22.994686      22.994686      22.994686    
     36500   646.24775     -3251.7365      72.089909     -3179.6466     -1647.9606      12239.845      23.04581       23.04581       23.04581     
     37000   637.06618     -3254.3665      71.065691     -3183.3008     -2814.1619      12201.964      23.02201       23.02201       23.02201     
     37500   674.26982     -3247.095       75.215813     -3171.8791      3217.65        12144.098      22.98556       22.98556       22.98556     
     38000   628.02344     -3250.0692      70.05696      -3180.0122      1780.1535      12156.296      22.993253      22.993253      22.993253    
     38500   625.08539     -3251.776       69.729216     -3182.0468      736.63731      12109.716      22.963848      22.963848      22.963848    
     39000   663.81761     -3255.0361      74.049854     -3180.9863      5324.7639      12101.735      22.958801      22.958801      22.958801    
     39500   627.79162     -3251.9537      70.0311       -3181.9226     -927.10972      12153.799      22.991679      22.991679      22.991679    
     40000   650.23243     -3253.9851      72.534407     -3181.4507     -2813.6868      12150.986      22.989905      22.989905      22.989905    
     40500   636.66914     -3249.4582      71.0214       -3178.4368      725.05413      12167.516      23.000325      23.000325      23.000325    
     41000   621.92119     -3254.9464      69.376245     -3185.5701      1771.5942      12097.36       22.956035      22.956035      22.956035    
     41500   673.13983     -3249.932       75.089761     -3174.8422      3087.306       12159.113      22.995029      22.995029      22.995029    
     42000   633.08158     -3251.6643      70.621203     -3181.0431     -2552.2955      12212.779      23.02881       23.02881       23.02881     
     42500   622.92929     -3252.5208      69.488699     -3183.0321      2271.9766      12133.21       22.978689      22.978689      22.978689    
     43000   639.45812     -3253.4146      71.332515     -3182.082      -1571.1232      12202.901      23.0226        23.0226        23.0226      
     43500   669.3293      -3251.3605      74.664691     -3176.6958     -3013.2927      12218.416      23.032353      23.032353      23.032353    
     44000   682.21951     -3251.1856      76.102613     -3175.083      -1949.6496      12167.658      23.000415      23.000415      23.000415    
     44500   698.45661     -3256.3871      77.913886     -3178.4732      1838.5635      12142.267      22.984404      22.984404      22.984404    
     45000   658.65287     -3253.1336      73.473719     -3179.6599     -132.15957      12152.238      22.990695      22.990695      22.990695    
     45500   660.73101     -3255.4339      73.705539     -3181.7283     -3337.6488      12180.598      23.008565      23.008565      23.008565    
     46000   632.01831     -3252.6836      70.502594     -3182.181       4090.5546      12097.594      22.956182      22.956182      22.956182    
     46500   676.54493     -3256.466       75.469605     -3180.9963     -1939.9191      12169.503      23.001577      23.001577      23.001577    
     47000   631.11953     -3255.8013      70.402334     -3185.3989      1469.6331      12058.877      22.931667      22.931667      22.931667    
     47500   633.21429     -3252.5949      70.636007     -3181.9589     -1552.947       12167.427      23.000269      23.000269      23.000269    
     48000   656.36404     -3253.5833      73.218397     -3180.3649     -2399.3653      12110.269      22.964197      22.964197      22.964197    
     48500   614.89782     -3252.7038      68.592777     -3184.111       748.66407      12117.261      22.968616      22.968616      22.968616    
     49000   677.46952     -3251.0347      75.572744     -3175.4619      1426.7342      12147.809      22.987901      22.987901      22.987901    
     49500   658.90352     -3253.319       73.50168      -3179.8173     -407.37004      12154.025      22.991821      22.991821      22.991821    
     50000   649.06122     -3258.8006      72.403756     -3186.3969      2449.0998      12067.021      22.936828      22.936828      22.936828    
Loop time of 1434.28 on 8 procs for 50000 steps with 864 atoms

Performance: 3.012 ns/day, 7.968 hours/ns, 34.861 timesteps/s, 30.120 katom-step/s
94.7% CPU use with 1 MPI tasks x 8 OpenMP threads

MPI task timing breakdown:
Section |  min time  |  avg time  |  max time  |%varavg| %total
---------------------------------------------------------------
Pair    | 1352.4     | 1352.4     | 1352.4     |   0.0 | 94.29
Neigh   | 0.25348    | 0.25348    | 0.25348    |   0.0 |  0.02
Comm    | 1.2969     | 1.2969     | 1.2969     |   0.0 |  0.09
Output  | 0.01098    | 0.01098    | 0.01098    |   0.0 |  0.00
Modify  | 80.086     | 80.086     | 80.086     |   0.0 |  5.58
Other   |            | 0.2575     |            |       |  0.02

Nlocal:            864 ave         864 max         864 min
Histogram: 1 0 0 0 0 0 0 0 0 0
Nghost:           3328 ave        3328 max        3328 min
Histogram: 1 0 0 0 0 0 0 0 0 0
Neighs:          65046 ave       65046 max       65046 min
Histogram: 1 0 0 0 0 0 0 0 0 0
FullNghs:       130092 ave      130092 max      130092 min
Histogram: 1 0 0 0 0 0 0 0 0 0

Total # of neighbors = 130092
Ave neighs/atom = 150.56944
Neighbor list builds = 130
Dangerous builds = 0

=== FINAL RESULTS: FCC at 650 K ===
Atoms: 864 | PE/atom: -3.76664129627486 eV/atom
WARNING: Detected non-ASCII characters in input. Will try to continue by replacing with ASCII equivalents where known. (src/input.cpp:479)
Volume: 12067.0210462759 …³ | Area: 526.098075910356 ²
==========================================
FCC 650 864 -3.76664129627486 12067.0210462759 22.936827939154 22.936827939154 22.936827939154 526.098075910356
Simulation complete!
Total wall time: 0:52:57
