LAMMPS (10 Sep 2025)
  using 8 OpenMP thread(s) per MPI task
Loaded 1 plugins from C:\Users\kumar\AppData\Local\LAMMPS 64-bit 10Sep2025\plugins
using multi-threaded neighbor list subroutines
Reading data file ...
  orthogonal box = (0 0 0) to (16.351137 28.321 26.701295)
  1 by 1 by 1 MPI processor grid
  reading atoms ...
  432 atoms
  read_data CPU = 0.004 seconds
=== STAGE 1: Energy Minimization ===
Switching to 'neigh_modify every 1 delay 0 check yes' setting during minimization
No /omp style for force computation currently active
Neighbor list info ...
  update: every = 1 steps, delay = 0 steps, check = yes
  max neighbors/atom: 4000, page size: 100000
  master list distance cutoff = 8
  ghost atom cutoff = 8
  binsize = 4, bins = 5 8 7
  2 neighbor lists, perpetual/occasional/extra = 2 0 0
  (1) pair meam, perpetual
      attributes: full, newton on, omp
      pair build: full/bin/atomonly/omp
      stencil: full/bin/3d
      bin: standard
  (2) pair meam, perpetual, half/full from (1)
      attributes: half, newton on, omp
      pair build: halffull/newton/omp
      stencil: none
      bin: none
Setting up cg style minimization ...
  Unit style    : metal
  Current step  : 0
Per MPI rank memory allocation (min/avg/max) = 19.27 | 19.27 | 19.27 Mbytes
   Step          Temp          PotEng         KinEng         TotEng         Press          Volume           Lx             Ly             Lz      
         0   0             -1097.6197      0             -1097.6197     -51934.822      12364.851      16.351137      28.321         26.701295    
       203   0             -1410.4817      0             -1410.4817     -34948.447      12364.851      16.351137      28.321         26.701295    
Loop time of 2.2619 on 8 procs for 203 steps with 432 atoms

93.9% CPU use with 1 MPI tasks x 8 OpenMP threads

Minimization stats:
  Stopping criterion = energy tolerance
  Energy initial, next-to-last, final = 
     -1097.61970993318  -1410.48116225059  -1410.48174604333
  Force two-norm initial, final = 31.896047 7.0702025
  Force max component initial, final = 4.6428784 1.70986
  Final line search alpha, max atom move = 0.0015804792 0.0027023981
  Iterations, force evaluations = 203 492

MPI task timing breakdown:
Section |  min time  |  avg time  |  max time  |%varavg| %total
---------------------------------------------------------------
Pair    | 2.1861     | 2.1861     | 2.1861     |   0.0 | 96.65
Neigh   | 0.003599   | 0.003599   | 0.003599   |   0.0 |  0.16
Comm    | 0.004949   | 0.004949   | 0.004949   |   0.0 |  0.22
Output  | 0          | 0          | 0          |   0.0 |  0.00
Modify  | 0.060058   | 0.060058   | 0.060058   |   0.0 |  2.66
Other   |            | 0.007153   |            |       |  0.32

Nlocal:            432 ave         432 max         432 min
Histogram: 1 0 0 0 0 0 0 0 0 0
Nghost:           1662 ave        1662 max        1662 min
Histogram: 1 0 0 0 0 0 0 0 0 0
Neighs:          15966 ave       15966 max       15966 min
Histogram: 1 0 0 0 0 0 0 0 0 0
FullNghs:        31932 ave       31932 max       31932 min
Histogram: 1 0 0 0 0 0 0 0 0 0

Total # of neighbors = 31932
Ave neighs/atom = 73.916667
Neighbor list builds = 7
Dangerous builds = 0
Minimized PE/atom: -3.26500404176696 eV/atom
=== STAGE 2: NPT Equilibration at 650 K ===
No /omp style for force computation currently active
Setting up Verlet run ...
  Unit style    : metal
  Current step  : 0
  Time step     : 0.002
Per MPI rank memory allocation (min/avg/max) = 18.16 | 18.16 | 18.16 Mbytes
   Step          Temp          PotEng         KinEng         TotEng         Press          Volume           Lx             Ly             Lz      
         0   650           -1410.4817      36.21223      -1374.2695     -31820.313      12364.851      16.351137      28.321         26.701295    
       500   921.65643     -1508.484       51.346514     -1457.1375     -6286.3656      8374.88        14.359672      24.871682      23.449247    
      1000   689.04263     -1566.0723      38.387339     -1527.6849     -3006.121       7262.2026      13.693289      23.717473      22.361048    
      1500   631.80387     -1580.6509      35.198503     -1545.4524     -647.81307      6938.3157      13.486617      23.359506      22.023553    
      2000   623.17529     -1589.7519      34.717795     -1555.0341     -1038.9474      6733.3011      13.352452      23.127125      21.804462    
      2500   654.50976     -1595.0416      36.463473     -1558.5781     -7198.0792      6674.185       13.31326       23.059243      21.740463    
      3000   650.95679     -1600.6162      36.265534     -1564.3507     -3019.0331      6567.5536      13.241978      22.93578       21.62406     
      3500   651.17281     -1605.52        36.277568     -1569.2424     -355.96477      6465.5976      13.173097      22.816473      21.511577    
      4000   649.14291     -1604.2821      36.16448      -1568.1176      3220.6029      6454.8527      13.165796      22.803827      21.499654    
      4500   600.51019     -1607.4555      33.455097     -1574.0004     -1601.8763      6440.8984      13.156301      22.787383      21.48415     
      5000   616.91967     -1607.4137      34.369287     -1573.0444      1795.8094      6404.3083      13.131341      22.74415       21.44339     
      5500   635.16082     -1612.7448      35.385522     -1577.3592      1533.8147      6378.2387      13.113499      22.713247      21.414254    
      6000   648.04694     -1609.7103      36.103422     -1573.6069      9526.2189      6379.7987      13.114568      22.715098      21.416       
      6500   605.2006      -1608.8166      33.716405     -1575.1002     -630.9074       6343.5663      13.089694      22.672015      21.375381    
      7000   659.28368     -1616.4755      36.729434     -1579.746       2795.5944      6227.7391      13.009536      22.533177      21.244483    
      7500   603.64027     -1613.3675      33.629477     -1579.7381     -725.87485      6172.4277      12.970907      22.46627       21.181402    
      8000   663.44297     -1616.4415      36.961152     -1579.4803      133.67525      6187.8854      12.981726      22.485008      21.199069    
      8500   669.05013     -1612.5074      37.273534     -1575.2339     -3276.0404      6232.2506      13.012677      22.538617      21.249612    
      9000   657.75521     -1616.4327      36.644281     -1579.7884     -154.72167      6174.3789      12.972273      22.468637      21.183634    
      9500   677.29082     -1616.0743      37.732632     -1578.3417      4447.9056      6151.4233      12.956177      22.440757      21.157348    
     10000   638.17357     -1617.9877      35.553366     -1582.4343     -1015.6488      6135.1246      12.944724      22.42092       21.138646    
     10500   687.95851     -1623.3208      38.326941     -1584.9939     -3052.7635      6094.6943      12.916226      22.37156       21.092109    
     11000   686.1033      -1621.3583      38.223585     -1583.1347     -6988.9801      6148.5344      12.954149      22.437243      21.154036    
     11500   615.51015     -1623.1438      34.290761     -1588.8531      1462.9318      6070.6964      12.899251      22.342159      21.064389    
     12000   628.77878     -1620.9421      35.029972     -1585.9121      6461.273       6092.4827      12.914664      22.368854      21.089558    
     12500   607.50483     -1621.1124      33.844776     -1587.2676     -3918.58        6148.1216      12.953859      22.436741      21.153563    
     13000   646.69361     -1625.1409      36.028027     -1589.1129     -6415.0028      6134.7936      12.944491      22.420517      21.138266    
     13500   675.41677     -1625.751       37.628226     -1588.1228      5063.6276      6054.9592      12.888095      22.322836      21.046172    
     14000   694.55291     -1624.7709      38.694322     -1586.0766      316.30788      6081.3767      12.906812      22.355253      21.076735    
     14500   641.82239     -1626.6642      35.756646     -1590.9076      2731.7161      6070.4937      12.899108      22.34191       21.064155    
     15000   652.22627     -1627.1045      36.336258     -1590.7682      1973.4854      6054.7986      12.887981      22.322639      21.045986    
     15500   685.3217      -1626.6413      38.180041     -1588.4613     -5452.2208      6119.8126      12.933946      22.402252      21.121045    
     16000   688.59675     -1627.6011      38.362498     -1589.2386      5258.7072      6019.0362      12.862557      22.278603      21.004468    
     16500   655.6065      -1629.6567      36.524574     -1593.1321     -245.89996      6085.6942      12.909865      22.360543      21.081722    
     17000   656.1054      -1627.1628      36.552368     -1590.6104      601.15986      6050.4892      12.884923      22.317341      21.040991    
     17500   654.85772     -1628.9681      36.482859     -1592.4853      2671.0063      6056.7827      12.889389      22.325077      21.048284    
     18000   620.58598     -1627.7324      34.573541     -1593.1589     -701.22945      6078.4053      12.904709      22.351612      21.073302    
     18500   676.54994     -1627.9366      37.691356     -1590.2452     -2947.6585      6064.3469      12.894753      22.334367      21.057043    
     19000   675.04899     -1628.4813      37.607737     -1590.8735     -452.59567      6040.0467      12.877506      22.304495      21.02888     
     19500   658.19394     -1627.1832      36.668723     -1590.5145     -4554.5748      6064.812       12.895082      22.334938      21.057581    
     20000   617.16418     -1628.922       34.382909     -1594.539       4055.5378      6011.977       12.857527      22.26989       20.996253    
Loop time of 205.66 on 8 procs for 20000 steps with 432 atoms

Performance: 16.804 ns/day, 1.428 hours/ns, 97.248 timesteps/s, 42.011 katom-step/s
97.7% CPU use with 1 MPI tasks x 8 OpenMP threads

MPI task timing breakdown:
Section |  min time  |  avg time  |  max time  |%varavg| %total
---------------------------------------------------------------
Pair    | 185.24     | 185.24     | 185.24     |   0.0 | 90.07
Neigh   | 0.088936   | 0.088936   | 0.088936   |   0.0 |  0.04
Comm    | 0.25098    | 0.25098    | 0.25098    |   0.0 |  0.12
Output  | 0.003589   | 0.003589   | 0.003589   |   0.0 |  0.00
Modify  | 20.006     | 20.006     | 20.006     |   0.0 |  9.73
Other   |            | 0.07428    |            |       |  0.04

Nlocal:            432 ave         432 max         432 min
Histogram: 1 0 0 0 0 0 0 0 0 0
Nghost:           2466 ave        2466 max        2466 min
Histogram: 1 0 0 0 0 0 0 0 0 0
Neighs:          32653 ave       32653 max       32653 min
Histogram: 1 0 0 0 0 0 0 0 0 0
FullNghs:        65306 ave       65306 max       65306 min
Histogram: 1 0 0 0 0 0 0 0 0 0

Total # of neighbors = 65306
Ave neighs/atom = 151.1713
Neighbor list builds = 111
Dangerous builds = 0
=== STAGE 3: NPT Production at 650 K ===
No /omp style for force computation currently active
Setting up Verlet run ...
  Unit style    : metal
  Current step  : 0
  Time step     : 0.001
Per MPI rank memory allocation (min/avg/max) = 18.74 | 18.74 | 18.74 Mbytes
   Step          Temp          PotEng         KinEng         TotEng         Press          Volume           Lx             Ly             Lz      
         0   617.16418     -1628.922       34.382909     -1594.539       4055.5378      6011.977       12.857527      22.26989       20.996253    
       500   636.09949     -1630.1069      35.437816     -1594.6691     -2896.7841      6080.1563      12.905948      22.353758      21.075325    
      1000   670.29958     -1629.8473      37.343142     -1592.5042      3102.9452      5996.9443      12.846801      22.251313      20.978739    
      1500   603.92852     -1629.2326      33.645536     -1595.5871     -2458.1703      6005.1536      12.852661      22.261461      20.988307    
      2000   615.55445     -1629.6045      34.29323      -1595.3112      3289.0123      5990.8422      12.842442      22.243763      20.971621    
      2500   682.04064     -1630.9342      37.99725      -1592.937      -28.559425      6052.7229      12.886509      22.320088      21.04358     
      3000   655.83388     -1628.7545      36.537242     -1592.2172      2847.3463      6083.1274      12.90805       22.357398      21.078757    
      3500   588.38054     -1633.2403      32.779341     -1600.4609      640.54412      6014.463       12.859299      22.272959      20.999147    
      4000   600.14957     -1629.3331      33.435006     -1595.8981     -1853.4989      6060.8634      12.892283      22.330089      21.05301     
      4500   590.5094      -1630.6464      32.897941     -1597.7484      3685.5548      5976.9033      12.832475      22.226498      20.955343    
      5000   640.00914     -1630.5748      35.655628     -1594.9192     -7968.8132      6088.1751      12.911619      22.363581      21.084586    
      5500   661.43857     -1630.326       36.849485     -1593.4766      1031.1055      6013.8838      12.858886      22.272244      20.998473    
      6000   615.99343     -1633.2097      34.317685     -1598.892      -5914.0484      6084.5455      12.909053      22.359136      21.080395    
      6500   687.14175     -1628.8275      38.281438     -1590.546       6816.1413      6014.8309      12.859561      22.273413      20.999575    
      7000   651.97007     -1628.9409      36.321984     -1592.6189      596.7153       6032.3492      12.872033      22.295016      21.019943    
      7500   645.0382      -1631.9154      35.935802     -1595.9796     -470.96651      6021.6216      12.864399      22.281792      21.007475    
      8000   610.15049     -1631.2196      33.992169     -1597.2275      1204.2388      6047.8877      12.883076      22.314143      21.037975    
      8500   663.10731     -1632.5822      36.942453     -1595.6398      2172.6433      6032.032       12.871808      22.294625      21.019574    
      9000   638.88407     -1631.7922      35.592949     -1596.1993     -13.75821       6071.1704      12.899587      22.34274       21.064938    
      9500   664.43277     -1629.7042      37.016295     -1592.6879      1113.8236      6049.1521      12.883974      22.315697      21.039441    
     10000   670.71329     -1630.2815      37.36619      -1592.9153      2683.3822      6070.0397      12.898786      22.341353      21.06363     
     10500   659.21377     -1628.8261      36.725539     -1592.1006     -2305.0293      6089.8562      12.912808      22.365639      21.086527    
     11000   675.68317     -1629.0533      37.643068     -1591.4103      3170.9669      6030.8599      12.870974      22.293181      21.018213    
     11500   629.60926     -1629.9108      35.076239     -1594.8346     -2163.8248      6073.9106      12.901528      22.346101      21.068106    
     12000   654.75063     -1632.6812      36.476892     -1596.2043      290.38221      6007.5607      12.854378      22.264435      20.991111    
     12500   674.84424     -1633.3571      37.59633      -1595.7608     -2514.2088      6063.8823      12.894423      22.333796      21.056505    
     13000   632.25232     -1633.2435      35.223486     -1598.02        691.36977      6051.1658      12.885403      22.318173      21.041776    
     13500   604.13741     -1633.8518      33.657173     -1600.1946     -184.68068      6049.0372      12.883892      22.315556      21.039308    
     14000   645.02023     -1632.9946      35.934801     -1597.0598     -2709.3753      6032.6991      12.872282      22.295447      21.020349    
     14500   700.13968     -1633.516       39.005568     -1594.5105      523.44188      6058.4438      12.890567      22.327118      21.050208    
     15000   662.81031     -1631.7262      36.925906     -1594.8003     -3874.1078      6074.1417      12.901691      22.346385      21.068373    
     15500   633.30331     -1634.0386      35.282038     -1598.7566     -3562.0939      6058.7671      12.890797      22.327515      21.050583    
     16000   648.08285     -1632.0569      36.105423     -1595.9515      5252.7585      6001.7495      12.850232      22.257254      20.98434     
     16500   652.95126     -1634.3253      36.376648     -1597.9486     -12498.273      6124.1289      12.936986      22.407517      21.12601     
     17000   654.83815     -1634.8053      36.481769     -1598.3235     -2997.4738      6018.286       12.862023      22.277677      21.003595    
     17500   699.81417     -1630.4525      38.987433     -1591.4651     -981.9653       6074.4107      12.901882      22.346715      21.068684    
     18000   595.16198     -1634.1351      33.157142     -1600.978      -625.51925      6029.6307      12.8701        22.291666      21.016785    
     18500   641.25161     -1634.4437      35.724847     -1598.7189      5811.6619      6017.9458      12.86178       22.277257      21.0032      
     19000   659.3677      -1635.0711      36.734115     -1598.3369      2118.3886      6032.6111      12.87222       22.295339      21.020247    
     19500   633.20827     -1634.5078      35.276743     -1599.2311     -1016.8333      6074.8982      12.902227      22.347312      21.069248    
     20000   635.13195     -1632.062       35.383914     -1596.678       2916.6176      6038.8114      12.876628      22.302974      21.027446    
     20500   661.4995      -1634.3773      36.85288      -1597.5245     -964.81762      6076.2214      12.903163      22.348935      21.070778    
     21000   647.14272     -1636.8878      36.053048     -1600.8347      294.05947      6060.8293      12.892259      22.330047      21.052971    
     21500   639.79183     -1635.7286      35.643521     -1600.0851      4738.0565      6031.8688      12.871692      22.294424      21.019385    
     22000   660.18315     -1633.3404      36.779545     -1596.5609      183.88005      6069.2113      12.898199      22.340337      21.062671    
     22500   675.36477     -1635.2642      37.625329     -1597.6389     -7158.7424      6107.3716      12.925176      22.387061      21.106723    
     23000   647.77219     -1633.3902      36.088116     -1597.3021     -3338.1113      6061.0309      12.892402      22.330295      21.053204    
     23500   642.56158     -1635.5968      35.797827     -1599.799      -1942.4642      6075.8856      12.902926      22.348523      21.07039     
     24000   644.92297     -1636.3882      35.929383     -1600.4589      5259.2708      6023.4449      12.865697      22.284041      21.009595    
     24500   683.95983     -1634.9137      38.10417      -1596.8095     -2240.2944      6085.2123      12.909525      22.359952      21.081165    
     25000   669.19676     -1634.5547      37.281703     -1597.273       3932.9728      6038.1913      12.876187      22.302211      21.026726    
     25500   628.28516     -1637.7557      35.002472     -1602.7532     -3199.206       6077.3466      12.90396       22.350314      21.072078    
     26000   634.04235     -1635.939       35.323211     -1600.6158      3817.4938      6067.8238      12.897216      22.338634      21.061066    
     26500   625.88108     -1637.2124      34.868538     -1602.3439      1184.6276      6037.7485      12.875873      22.301666      21.026212    
     27000   658.87654     -1638.9874      36.706751     -1602.2807      98.568789      6045.3181      12.881251      22.310982      21.034995    
     27500   668.57989     -1636.4648      37.247336     -1599.2175     -284.77495      6054.0905      12.887479      22.321768      21.045165    
     28000   652.97095     -1634.3322      36.377745     -1597.9544     -2554.1866      6089.8095      12.912775      22.365582      21.086473    
     28500   646.29494     -1639.2383      36.005817     -1603.2325     -3137.2078      6063.0434      12.893829      22.332766      21.055534    
     29000   601.2221      -1635.9532      33.494758     -1602.4584     -2606.6235      6080.9731      12.906526      22.354759      21.076269    
     29500   630.59642     -1634.3158      35.131234     -1599.1846      818.07922      6034.4129      12.873501      22.297558      21.022339    
     30000   628.15429     -1637.4465      34.995181     -1602.4513      373.90266      5995.4592      12.845741      22.249476      20.977007    
     30500   644.91315     -1641.3028      35.928836     -1605.374      -9403.5456      6079.6034      12.905557      22.35308       21.074686    
     31000   640.79995     -1635.7599      35.699685     -1600.0602     -3003.2997      6057.3956      12.889824      22.32583       21.048994    
     31500   686.56415     -1640.2712      38.249259     -1602.0219     -528.00084      6021.1953      12.864095      22.281266      21.006979    
     32000   641.5607      -1639.1895      35.742067     -1603.4474      5152.6763      5972.9255      12.829627      22.221566      20.950693    
     32500   621.4935      -1639.7591      34.6241       -1605.135      -4362.5565      6049.6665      12.884339      22.31633       21.040038    
     33000   658.04539     -1635.8748      36.660447     -1599.2144      6072.5424      5989.4367      12.841438      22.242023      20.969981    
     33500   672.68418     -1635.9905      37.475991     -1598.5146     -628.27391      6051.2124      12.885437      22.318231      21.04183     
     34000   605.18433     -1637.2964      33.715499     -1603.5809     -1847.2952      6021.5883      12.864375      22.281751      21.007436    
     34500   675.44263     -1640.0386      37.629667     -1602.4089      163.54078      6015.4506      12.860003      22.274178      21.000296    
     35000   640.7959      -1637.2719      35.699459     -1601.5724     -368.01304      6054.3929      12.887694      22.32214       21.045515    
     35500   648.48668     -1633.4041      36.127921     -1597.2762     -1495.0067      6103.2704      12.922282      22.382049      21.101998    
     36000   647.17796     -1635.772       36.05501      -1599.7169     -500.38507      6072.776       12.900724      22.34471       21.066794    
     36500   658.45315     -1638.725       36.683164     -1602.0418     -3082.5062      6058.201       12.890395      22.326819      21.049927    
     37000   655.00107     -1638.2532      36.490845     -1601.7624      4446.8952      6004.1594      12.851951      22.260233      20.987149    
     37500   631.18601     -1638.7331      35.164081     -1603.569      -2166.4334      6066.7992      12.89649       22.337377      21.059881    
     38000   654.90424     -1638.9648      36.48545      -1602.4793      2394.0104      6019.6546      12.862998      22.279366      21.005187    
     38500   643.036       -1638.213       35.824258     -1602.3888     -5847.829       6078.8368      12.905015      22.352141      21.0738      
     39000   656.4489      -1639.4424      36.571505     -1602.8709      3609.6136      5982.3577      12.836377      22.233257      20.961716    
     39500   646.71579     -1635.8678      36.029263     -1599.8385     -1860.9155      6077.6852      12.9042        22.350729      21.07247     
     40000   680.95425     -1639.4037      37.936725     -1601.4669      67.255043      6056.2692      12.889025      22.324446      21.047689    
     40500   643.11413     -1638.691       35.82861      -1602.8624     -2778.1324      6034.6909      12.873699      22.297901      21.022662    
     41000   669.25272     -1636.5473      37.28482      -1599.2625      3606.7771      6033.2847      12.872699      22.296168      21.021029    
     41500   634.77633     -1636.5703      35.364102     -1601.2062      1409.4451      6042.8402      12.879491      22.307933      21.032121    
     42000   619.99758     -1639.3363      34.540761     -1604.7955     -2295.8873      6054.2414      12.887586      22.321954      21.04534     
     42500   594.78267     -1638.5888      33.13601      -1605.4528      270.75662      6010.0521      12.856154      22.267513      20.994012    
     43000   667.11939     -1638.6936      37.16597      -1601.5277     -1547.442       6056.8474      12.889435      22.325156      21.048359    
     43500   633.9338      -1638.3165      35.317163     -1602.9993     -6932.1721      6086.4716      12.910415      22.361495      21.082619    
     44000   627.38818     -1635.3987      34.9525       -1600.4462      6328.7079      6012.8574      12.858154      22.270977      20.997278    
     44500   637.76173     -1640.7314      35.530422     -1605.201      -753.85517      6029.8192      12.870234      22.291899      21.017004    
     45000   569.49848     -1637.4577      31.7274       -1605.7303      1305.0812      6010.5482      12.856508      22.268125      20.99459     
     45500   695.126       -1637.8457      38.72625      -1599.1194      4683.8679      6010.4462      12.856435      22.267999      20.994471    
     46000   653.34589     -1636.9129      36.398633     -1600.5142     -6372.4322      6088.9471      12.912165      22.364526      21.085477    
     46500   620.56687     -1640.6468      34.572477     -1606.0743     -1241.1874      6009.2426      12.855577      22.266513      20.99307     
     47000   618.14375     -1637.2566      34.437482     -1602.8191     -9763.6495      6101.3367      12.920917      22.379684      21.099769    
     47500   620.13165     -1639.0587      34.54823      -1604.5105     -910.05063      6037.2194      12.875497      22.301014      21.025598    
     48000   631.01831     -1640.0789      35.154739     -1604.9242     -2334.9037      6045.358       12.88128       22.311031      21.035042    
     48500   648.39564     -1636.8018      36.122849     -1600.679       1252.0247      6025.7814      12.86736       22.286922      21.012311    
     49000   658.46208     -1638.3238      36.683662     -1601.6401      5408.7454      6005.7178      12.853063      22.262158      20.988964    
     49500   658.8753      -1637.778       36.706683     -1601.0713     -1906.7338      6055.8267      12.888711      22.323902      21.047177    
     50000   630.2334      -1637.8154      35.11101      -1602.7043      624.77569      6010.3116      12.856339      22.267833      20.994314    
Loop time of 532.437 on 8 procs for 50000 steps with 432 atoms

Performance: 8.114 ns/day, 2.958 hours/ns, 93.908 timesteps/s, 40.568 katom-step/s
97.0% CPU use with 1 MPI tasks x 8 OpenMP threads

MPI task timing breakdown:
Section |  min time  |  avg time  |  max time  |%varavg| %total
---------------------------------------------------------------
Pair    | 482.52     | 482.52     | 482.52     |   0.0 | 90.62
Neigh   | 0.062757   | 0.062757   | 0.062757   |   0.0 |  0.01
Comm    | 0.63421    | 0.63421    | 0.63421    |   0.0 |  0.12
Output  | 0.008333   | 0.008333   | 0.008333   |   0.0 |  0.00
Modify  | 49.07      | 49.07      | 49.07      |   0.0 |  9.22
Other   |            | 0.146      |            |       |  0.03

Nlocal:            432 ave         432 max         432 min
Histogram: 1 0 0 0 0 0 0 0 0 0
Nghost:           2506 ave        2506 max        2506 min
Histogram: 1 0 0 0 0 0 0 0 0 0
Neighs:          32742 ave       32742 max       32742 min
Histogram: 1 0 0 0 0 0 0 0 0 0
FullNghs:        65484 ave       65484 max       65484 min
Histogram: 1 0 0 0 0 0 0 0 0 0

Total # of neighbors = 65484
Ave neighs/atom = 151.58333
Neighbor list builds = 77
Dangerous builds = 0

=== FINAL RESULTS: DHCP at 650 K ===
Atoms: 432 | PE/atom: -3.79402952016511 eV/atom
WARNING: Detected non-ASCII characters in input. Will try to continue by replacing with ASCII equivalents where known. (src/input.cpp:479)
Volume: 6010.31161199824 …³ | Area: 286.282823033485 ²
==========================================
DHCP 650 432 -3.79402952016511 6010.31161199824 12.8563394844089 22.2678331869398 20.9943144625735 286.282823033485
Simulation complete!
Total wall time: 0:12:20
