LAMMPS (10 Sep 2025)
  using 8 OpenMP thread(s) per MPI task
Loaded 1 plugins from C:\Users\kumar\AppData\Local\LAMMPS 64-bit 10Sep2025\plugins
using multi-threaded neighbor list subroutines
Reading data file ...
  orthogonal box = (0 0 0) to (16.351137 28.321 26.701295)
  1 by 1 by 1 MPI processor grid
  reading atoms ...
  432 atoms
  read_data CPU = 0.016 seconds
=== STAGE 1: Energy Minimization ===
Switching to 'neigh_modify every 1 delay 0 check yes' setting during minimization
No /omp style for force computation currently active
Neighbor list info ...
  update: every = 1 steps, delay = 0 steps, check = yes
  max neighbors/atom: 4000, page size: 100000
  master list distance cutoff = 8
  ghost atom cutoff = 8
  binsize = 4, bins = 5 8 7
  2 neighbor lists, perpetual/occasional/extra = 2 0 0
  (1) pair meam, perpetual
      attributes: full, newton on, omp
      pair build: full/bin/atomonly/omp
      stencil: full/bin/3d
      bin: standard
  (2) pair meam, perpetual, half/full from (1)
      attributes: half, newton on, omp
      pair build: halffull/newton/omp
      stencil: none
      bin: none
Setting up cg style minimization ...
  Unit style    : metal
  Current step  : 0
Per MPI rank memory allocation (min/avg/max) = 19.27 | 19.27 | 19.27 Mbytes
   Step          Temp          PotEng         KinEng         TotEng         Press          Volume           Lx             Ly             Lz      
         0   0             -1097.6197      0             -1097.6197     -51934.822      12364.851      16.351137      28.321         26.701295    
       203   0             -1410.4817      0             -1410.4817     -34948.447      12364.851      16.351137      28.321         26.701295    
Loop time of 2.29639 on 8 procs for 203 steps with 432 atoms

98.7% CPU use with 1 MPI tasks x 8 OpenMP threads

Minimization stats:
  Stopping criterion = energy tolerance
  Energy initial, next-to-last, final = 
     -1097.61970993318  -1410.48116225059  -1410.48174604333
  Force two-norm initial, final = 31.896047 7.0702025
  Force max component initial, final = 4.6428784 1.70986
  Final line search alpha, max atom move = 0.0015804792 0.0027023981
  Iterations, force evaluations = 203 492

MPI task timing breakdown:
Section |  min time  |  avg time  |  max time  |%varavg| %total
---------------------------------------------------------------
Pair    | 2.2195     | 2.2195     | 2.2195     |   0.0 | 96.65
Neigh   | 0.004793   | 0.004793   | 0.004793   |   0.0 |  0.21
Comm    | 0.004768   | 0.004768   | 0.004768   |   0.0 |  0.21
Output  | 0          | 0          | 0          |   0.0 |  0.00
Modify  | 0.060115   | 0.060115   | 0.060115   |   0.0 |  2.62
Other   |            | 0.007234   |            |       |  0.32

Nlocal:            432 ave         432 max         432 min
Histogram: 1 0 0 0 0 0 0 0 0 0
Nghost:           1662 ave        1662 max        1662 min
Histogram: 1 0 0 0 0 0 0 0 0 0
Neighs:          15966 ave       15966 max       15966 min
Histogram: 1 0 0 0 0 0 0 0 0 0
FullNghs:        31932 ave       31932 max       31932 min
Histogram: 1 0 0 0 0 0 0 0 0 0

Total # of neighbors = 31932
Ave neighs/atom = 73.916667
Neighbor list builds = 7
Dangerous builds = 0
Minimized PE/atom: -3.26500404176696 eV/atom
=== STAGE 2: NPT Equilibration at 400 K ===
No /omp style for force computation currently active
Setting up Verlet run ...
  Unit style    : metal
  Current step  : 0
  Time step     : 0.002
Per MPI rank memory allocation (min/avg/max) = 18.16 | 18.16 | 18.16 Mbytes
   Step          Temp          PotEng         KinEng         TotEng         Press          Volume           Lx             Ly             Lz      
         0   400           -1410.4817      22.284449     -1388.1973     -33023.441      12364.851      16.351137      28.321         26.701295    
       500   663.79873     -1527.352       36.980972     -1490.371      -1459.9981      7931.0618      14.101396      24.424335      23.027483    
      1000   420.25447     -1579.7544      23.412848     -1556.3415      368.48827      7142.7058      13.617768      23.586666      22.237722    
      1500   386.01751     -1594.8465      21.505469     -1573.3411     -1508.417       6904.1062      13.464415      23.321051      21.987298    
      2000   405.24971     -1600.3678      22.576916     -1577.7909     -694.06819      6805.1228      13.399759      23.209064      21.881715    
      2500   385.78756     -1600.2436      21.492658     -1578.7509      138.05113      6774.4495      13.379596      23.17414       21.848789    
      3000   398.48582     -1603.2728      22.200093     -1581.0727     -1264.845       6708.6866      13.336161      23.098909      21.77786     
      3500   432.93224     -1605.8247      24.119141     -1581.7056      3735.5764      6683.6095      13.319524      23.070092      21.750691    
      4000   415.21992     -1606.3438      23.132368     -1583.2114      2066.4803      6683.6766      13.319568      23.070169      21.750764    
      4500   377.72709     -1607.207       21.0436       -1586.1634      343.82283      6603.4547      13.266063      22.977496      21.663391    
      5000   375.70049     -1609.3339      20.930696     -1588.4032     -1683.5925      6566.0615      13.240976      22.934042      21.622423    
      5500   371.73456     -1610.0654      20.70975      -1589.3557      2297.5694      6520.1393      13.210035      22.880451      21.571896    
      6000   394.06549     -1612.0108      21.953831     -1590.057       4977.2344      6511.8543      13.204437      22.870756      21.562756    
      6500   386.90758     -1615.1979      21.555055     -1593.6428      3280.2772      6419.1536      13.141479      22.76171       21.459946    
      7000   406.40046     -1615.3915      22.641026     -1592.7504      2056.662       6470.1393      13.176181      22.821815      21.516613    
      7500   435.32124     -1614.5845      24.252235     -1590.3323      1017.9981      6507.4597      13.201466      22.86561       21.557904    
      8000   399.81999     -1618.5529      22.27442      -1596.2785     -1695.4077      6489.4804      13.189297      22.844532      21.538032    
      8500   417.60612     -1619.5759      23.265306     -1596.3106     -1893.8625      6422.6487      13.143864      22.76584       21.46384     
      9000   439.17246     -1619.6579      24.46679      -1595.1911      3070.9432      6396.1185      13.125741      22.734451      21.434246    
      9500   402.36654     -1620.7876      22.416292     -1598.3713     -1399.1799      6390.3764      13.121812      22.727645      21.427829    
     10000   395.33486     -1622.1459      22.024549     -1600.1214     -1848.2719      6380.7596      13.115227      22.716239      21.417075    
     10500   400.63992     -1621.0744      22.320099     -1598.7543     -147.84743      6410.0382      13.135256      22.750931      21.449783    
     11000   423.79228     -1621.4978      23.609944     -1597.8878      2803.3182      6355.5511      13.097932      22.686284      21.388834    
     11500   395.80186     -1621.2202      22.050566     -1599.1696      902.51371      6376.9877      13.112642      22.711762      21.412854    
     12000   415.28625     -1622.7911      23.136063     -1599.655       1501.0717      6379.897       13.114636      22.715215      21.41611     
     12500   392.31076     -1622.5749      21.856073     -1600.7188     -830.26644      6367.4614      13.106109      22.700447      21.402186    
     13000   362.76998     -1622.4995      20.210323     -1602.2892      1452.7999      6349.826       13.093998      22.67947       21.38241     
     13500   387.19772     -1622.1073      21.571219     -1600.5361      40.270872      6380.1129      13.114783      22.715471      21.416352    
     14000   381.89165     -1621.2528      21.275613     -1599.9772      640.98102      6384.098       13.117513      22.7202        21.42081     
     14500   389.34461     -1622.1333      21.690825     -1600.4425      1266.2828      6327.638       13.078729      22.653023      21.357475    
     15000   389.72458     -1620.5098      21.711994     -1598.7978      1874.3053      6376.919       13.112595      22.71168       21.412777    
     15500   407.01033     -1621.6511      22.675003     -1598.9761     -132.38527      6402.0198      13.129777      22.74144       21.440836    
     16000   392.85488     -1620.8073      21.886386     -1598.9209     -1295.1998      6402.8807      13.130365      22.74246       21.441797    
     16500   368.48637     -1624.3489      20.528789     -1603.8201      3261.3509      6285.2733      13.049476      22.602355      21.309704    
     17000   406.41454     -1623.0098      22.64181      -1600.368      -247.72558      6371.3055      13.108746      22.705014      21.406492    
     17500   407.25143     -1621.4028      22.688435     -1598.7143      1331.7158      6344.3706      13.090247      22.672973      21.376284    
     18000   405.26912     -1622.3088      22.577997     -1599.7308     -2826.7187      6382.4529      13.116387      22.718248      21.41897     
     18500   393.71568     -1624.4792      21.934343     -1602.5449      1255.1346      6323.9163      13.076164      22.648581      21.353287    
     19000   388.72785     -1625.58        21.656465     -1603.9235      586.14202      6310.468       13.066889      22.632515      21.33814     
     19500   417.78737     -1625.0371      23.275403     -1601.7617      23.545649      6279.1807      13.045258      22.595049      21.302817    
     20000   428.36531     -1625.5095      23.864712     -1601.6448     -7292.7381      6341.6867      13.088401      22.669776      21.37327     
Loop time of 226.616 on 8 procs for 20000 steps with 432 atoms

Performance: 15.250 ns/day, 1.574 hours/ns, 88.255 timesteps/s, 38.126 katom-step/s
96.3% CPU use with 1 MPI tasks x 8 OpenMP threads

MPI task timing breakdown:
Section |  min time  |  avg time  |  max time  |%varavg| %total
---------------------------------------------------------------
Pair    | 203.44     | 203.44     | 203.44     |   0.0 | 89.77
Neigh   | 0.05021    | 0.05021    | 0.05021    |   0.0 |  0.02
Comm    | 0.27279    | 0.27279    | 0.27279    |   0.0 |  0.12
Output  | 0.004024   | 0.004024   | 0.004024   |   0.0 |  0.00
Modify  | 22.774     | 22.774     | 22.774     |   0.0 | 10.05
Other   |            | 0.07206    |            |       |  0.03

Nlocal:            432 ave         432 max         432 min
Histogram: 1 0 0 0 0 0 0 0 0 0
Nghost:           2395 ave        2395 max        2395 min
Histogram: 1 0 0 0 0 0 0 0 0 0
Neighs:          31511 ave       31511 max       31511 min
Histogram: 1 0 0 0 0 0 0 0 0 0
FullNghs:        63022 ave       63022 max       63022 min
Histogram: 1 0 0 0 0 0 0 0 0 0

Total # of neighbors = 63022
Ave neighs/atom = 145.88426
Neighbor list builds = 58
Dangerous builds = 0
=== STAGE 3: NPT Production at 400 K ===
No /omp style for force computation currently active
Setting up Verlet run ...
  Unit style    : metal
  Current step  : 0
  Time step     : 0.001
Per MPI rank memory allocation (min/avg/max) = 18.51 | 18.51 | 18.51 Mbytes
   Step          Temp          PotEng         KinEng         TotEng         Press          Volume           Lx             Ly             Lz      
         0   428.36531     -1625.5095      23.864712     -1601.6448     -7292.7381      6341.6867      13.088401      22.669776      21.37327     
       500   421.26291     -1626.8563      23.469029     -1603.3873     -3656.3206      6259.7363      13.031778      22.571702      21.280805    
      1000   416.64971     -1627.4834      23.212023     -1604.2713      1815.6801      6232.0498      13.012537      22.538375      21.249384    
      1500   381.91646     -1626.5252      21.276995     -1605.2482      554.507        6257.0198      13.029893      22.568436      21.277726    
      2000   367.41813     -1626.5576      20.469276     -1606.0883      1386.3294      6244.8214      13.02142       22.553761      21.26389     
      2500   417.36911     -1627.5634      23.252101     -1604.3113     -5827.0213      6300.295       13.059863      22.620347      21.326667    
      3000   419.06373     -1627.4067      23.346511     -1604.0602      3208.1376      6236.8065      13.015847      22.544108      21.254789    
      3500   401.97287     -1624.8856      22.39436      -1602.4912     -1384.1596      6309.1279      13.065964      22.630913      21.336629    
      4000   387.44106     -1625.1299      21.584776     -1603.5451      6383.9658      6247.8604      13.023532      22.557419      21.267338    
      4500   388.20622     -1626.0949      21.627404     -1604.4675     -2319.4285      6300.8984      13.06028       22.621069      21.327348    
      5000   415.14704     -1627.8896      23.128307     -1604.7613      1678.6061      6264.3736      13.034996      22.577275      21.286059    
      5500   373.31564     -1627.2882      20.797834     -1606.4903     -3539.2508      6282.0913      13.047273      22.59854       21.306108    
      6000   413.61241     -1628.0614      23.042812     -1605.0186     -1672.2626      6293.8356      13.055399      22.612614      21.319377    
      6500   425.78477     -1627.4084      23.720948     -1603.6874      3403.9516      6240.8939      13.018689      22.549032      21.259431    
      7000   426.07213     -1628.9327      23.736957     -1605.1957     -437.19731      6268.9472      13.038167      22.582768      21.291238    
      7500   393.95207     -1628.0273      21.947512     -1606.0798     -2482.1486      6317.3337      13.071626      22.64072       21.345876    
      8000   405.45838     -1627.4561      22.588541     -1604.8676      1175.6101      6258.9586      13.031239      22.570767      21.279923    
      8500   404.5313      -1627.1796      22.536893     -1604.6427     -5089.0995      6314.1792      13.06945       22.636951      21.342322    
      9000   391.98625     -1628.1741      21.837994     -1606.3361      727.82123      6242.5683      13.019854      22.551048      21.261332    
      9500   385.26584     -1628.0137      21.463592     -1606.5501     -1014.7328      6290.4634      13.053066      22.608574      21.315568    
     10000   377.97924     -1628.635       21.057648     -1607.5774     -2421.824       6295.0821      13.05626       22.614106      21.320784    
     10500   412.45393     -1628.6411      22.978271     -1605.6629      2186.5373      6255.6078      13.028913      22.566739      21.276125    
     11000   407.49621     -1628.2866      22.702071     -1605.5846      1754.2911      6268.2596      13.03769       22.581942      21.290459    
     11500   401.72357     -1629.0765      22.380471     -1606.6961      4883.769       6248.5565      13.024015      22.558257      21.268128    
     12000   407.61573     -1631.0859      22.70873      -1608.3771     -417.17195      6229.2782      13.010608      22.535033      21.246233    
     12500   412.50158     -1629.4886      22.980926     -1606.5077     -1125.7833      6242.6521      13.019912      22.551149      21.261427    
     13000   370.97121     -1629.8152      20.667223     -1609.148       1800.0179      6227.0117      13.009029      22.5323        21.243656    
     13500   394.47362     -1630.8503      21.976568     -1608.8737      4700.4897      6224.8762      13.007542      22.529724      21.241227    
     14000   417.20111     -1630.8918      23.242742     -1607.6491      461.74119      6231.5025      13.012156      22.537715      21.248762    
     14500   405.98723     -1628.5092      22.618004     -1605.8912      4257.9685      6237.7999      13.016538      22.545305      21.255917    
     15000   421.59863     -1631.1967      23.487733     -1607.709      -310.68049      6237.4761      13.016312      22.544915      21.255549    
     15500   418.09212     -1627.9071      23.292381     -1604.6147     -2244.5609      6259.9526      13.031928      22.571962      21.28105     
     16000   410.4545      -1629.7658      22.866881     -1606.8989     -857.14718      6266.0029      13.036126      22.579232      21.287904    
     16500   407.00146     -1630.7044      22.674508     -1608.0299      4900.9154      6224.1576      13.007042      22.528857      21.24041     
     17000   402.76298     -1629.8636      22.438377     -1607.4252      50.014208      6277.9529      13.044407      22.593576      21.301428    
     17500   382.3879      -1628.7056      21.303259     -1607.4024      1710.7302      6277.5106      13.044101      22.593046      21.300928    
     18000   416.45106     -1628.8508      23.200956     -1605.6499      967.54785      6262.3675      13.033604      22.574864      21.283786    
     18500   412.67205     -1629.1257      22.990423     -1606.1352      4031.0194      6244.1105      13.020926      22.552905      21.263083    
     19000   404.33885     -1629.1363      22.526171     -1606.6101      974.03968      6222.5903      13.00595       22.526966      21.238627    
     19500   403.66822     -1631.0188      22.488809     -1608.53        769.25116      6233.3281      13.013427      22.539916      21.250837    
     20000   402.52329     -1631.4508      22.425024     -1609.0257     -3336.2006      6250.8905      13.025637      22.561065      21.270776    
     20500   433.86974     -1629.9416      24.17137      -1605.7703     -46.204259      6249.2768      13.024516      22.559123      21.268945    
     21000   422.5112      -1631.0571      23.538573     -1607.5185      3228.133       6198.9034      12.989426      22.498346      21.211644    
     21500   393.70541     -1629.8784      21.93377      -1607.9446     -3560.149       6246.0412      13.022268      22.555229      21.265274    
     22000   404.50447     -1632.0008      22.535398     -1609.4654     -3713.7782      6245.1799      13.021669      22.554192      21.264297    
     22500   388.37635     -1631.2902      21.636882     -1609.6533      2770.7593      6222.6324      13.005979      22.527017      21.238675    
     23000   390.5593      -1629.1762      21.758497     -1607.4177     -58.576488      6245.4212      13.021837      22.554483      21.26457     
     23500   398.01115     -1631.0945      22.173648     -1608.9209      5837.8981      6203.931       12.992937      22.504426      21.217377    
     24000   395.46451     -1627.555       22.031772     -1605.5233      115.30106      6269.9795      13.038883      22.584007      21.292406    
     24500   408.51767     -1631.1103      22.758978     -1608.3513      1016.19        6246.123       13.022324      22.555328      21.265367    
     25000   392.71512     -1630.876       21.8786       -1608.9974      1950.5487      6204.1576      12.993095      22.5047        21.217635    
     25500   378.27534     -1631.1065      21.074144     -1610.0323     -2113.7106      6246.7598      13.022767      22.556094      21.26609     
     26000   382.39963     -1631.9774      21.303913     -1610.6735      3060.9144      6221.0382      13.004868      22.525093      21.236861    
     26500   404.77446     -1630.3338      22.55044      -1607.7833      1475.4422      6254.1138      13.027875      22.564942      21.274431    
     27000   384.18863     -1630.1507      21.40358      -1608.7471     -1271.011       6240.1896      13.0182        22.548183      21.258631    
     27500   408.45087     -1629.9684      22.755256     -1607.2132     -3874.7419      6252.0757      13.02646       22.562491      21.27212     
     28000   417.75557     -1628.1677      23.273632     -1604.894      -3596.4138      6267.5328      13.037186      22.581069      21.289636    
     28500   402.9118      -1630.8084      22.446668     -1608.3617      3244.9609      6195.7105      12.987195      22.494482      21.208001    
     29000   401.8679      -1632.1609      22.388512     -1609.7723      5055.8184      6194.2149      12.98615       22.492672      21.206295    
     29500   402.93811     -1630.3919      22.448135     -1607.9437      2175.7668      6183.3858      12.978578      22.479557      21.193929    
     30000   410.38466     -1629.4095      22.86299      -1606.5466      2203.2991      6215.275       13.000851      22.518135      21.230301    
     30500   387.18782     -1630.2729      21.570668     -1608.7023      1929.7905      6217.4549      13.002371      22.520767      21.232783    
     31000   381.07394     -1631.8813      21.230057     -1610.6512      2383.806       6231.1038      13.011878      22.537235      21.248309    
     31500   391.78206     -1630.5812      21.826618     -1608.7546     -2299.3523      6240.4893      13.018408      22.548544      21.258971    
     32000   421.19153     -1631.135       23.465053     -1607.67        670.03318      6235.9128      13.015225      22.543031      21.253773    
     32500   397.33155     -1631.1568      22.135787     -1609.0211      4953.2485      6176.4971      12.973757      22.471206      21.186056    
     33000   377.32861     -1632.5627      21.0214       -1611.5413      30.956736      6205.0901      12.993746      22.505828      21.218698    
     33500   402.77519     -1631.7073      22.439058     -1609.2683     -452.92667      6199.5803      12.989899      22.499165      21.212416    
     34000   427.43847     -1631.4839      23.813077     -1607.6708      522.27152      6176.5967      12.973826      22.471327      21.18617     
     34500   416.01753     -1630.4877      23.176804     -1607.3109     -700.5829       6218.3208      13.002974      22.521812      21.233768    
     35000   418.86841     -1632.1168      23.335629     -1608.7811     -1201.4503      6218.0165      13.002762      22.521445      21.233422    
     35500   373.45755     -1631.382       20.805739     -1610.5762      5109.0197      6199.9557      12.990161      22.499619      21.212844    
     36000   388.98361     -1630.399       21.670713     -1608.7283      1692.0945      6220.8253      13.00472       22.524836      21.236619    
     36500   415.4358      -1630.5147      23.144395     -1607.3703     -2004.6868      6233.4919      13.013541      22.540113      21.251023    
     37000   408.07088     -1630.6852      22.734087     -1607.9511     -374.45886      6210.7608      12.997703      22.512682      21.22516     
     37500   416.11598     -1631.9641      23.182288     -1608.7818     -3560.0472      6231.186       13.011936      22.537334      21.248402    
     38000   386.18237     -1631.2446      21.514653     -1609.7299      1907.9601      6192.9233      12.985248      22.491109      21.204821    
     38500   385.49031     -1631.198       21.476098     -1609.7219      1478.5905      6206.6662      12.994846      22.507733      21.220494    
     39000   396.51288     -1631.1515      22.090177     -1609.0614     -3535.5841      6216.6174      13.001787      22.519756      21.231829    
     39500   383.93801     -1631.2619      21.389618     -1609.8723     -3360.0467      6239.7471      13.017892      22.54765       21.258129    
     40000   393.88674     -1632.1241      21.943872     -1610.1802      908.2243       6210.7171      12.997672      22.512629      21.22511     
     40500   404.99827     -1628.8741      22.562908     -1606.3111     -2549.8748      6276.3396      13.04329       22.591641      21.299603    
     41000   423.01271     -1630.3029      23.566513     -1606.7364      2728.8127      6196.3683      12.987655      22.495278      21.208752    
     41500   403.65833     -1631.9638      22.488259     -1609.4755      3907.0404      6185.5119      12.980066      22.482133      21.196358    
     42000   400.66859     -1630.8439      22.321697     -1608.5222     -2285.8774      6234.8843      13.014509      22.541792      21.252605    
     42500   403.15212     -1630.0399      22.460057     -1607.5799      1969.4041      6236.0606      13.015328      22.543209      21.253941    
     43000   404.63884     -1629.3279      22.542884     -1606.785       979.44821      6222.4878      13.005878      22.526842      21.23851     
     43500   393.58842     -1630.6654      21.927252     -1608.7382     -1064.7588      6249.8503      13.024914      22.559813      21.269596    
     44000   380.70172     -1631.1322      21.20932      -1609.9228      333.75301      6243.9024      13.020781      22.552654      21.262847    
     44500   407.31749     -1632.6671      22.692115     -1609.9749      4910.0446      6190.3725      12.983465      22.48802       21.201909    
     45000   411.99993     -1629.9406      22.952979     -1606.9876      3314.4062      6214.7629      13.000494      22.517516      21.229718    
     45500   430.92693     -1631.7322      24.007423     -1607.7248     -409.35976      6235.2302      13.01475       22.542208      21.252998    
     46000   395.38058     -1631.5376      22.027096     -1609.5105     -3119.8776      6225.8624      13.008229      22.530914      21.242349    
     46500   387.50274     -1631.8282      21.588212     -1610.24       -2015.4219      6241.8054      13.019323      22.550129      21.260466    
     47000   381.39783     -1631.4593      21.248101     -1610.2112     -2902.2096      6258.1192      13.030656      22.569758      21.278972    
     47500   387.6759      -1632.1576      21.597859     -1610.5598     -5658.4096      6285.9506      13.049944      22.603166      21.31047     
     48000   403.73306     -1632.0001      22.492422     -1609.5077     -880.03951      6206.1192      12.994464      22.507072      21.219871    
     48500   393.45675     -1630.3051      21.919917     -1608.3852      2407.58        6216.34        13.001594      22.519421      21.231514    
     49000   385.82231     -1633.285       21.494594     -1611.7904     -1409.8273      6218.7094      13.003245      22.522282      21.234211    
     49500   402.79973     -1631.2302      22.440425     -1608.7898      3214.4885      6209.0442      12.996505      22.510607      21.223204    
     50000   406.43354     -1631.1886      22.642869     -1608.5457      3902.3604      6218.0777      13.002805      22.521519      21.233492    
Loop time of 590.159 on 8 procs for 50000 steps with 432 atoms

Performance: 7.320 ns/day, 3.279 hours/ns, 84.723 timesteps/s, 36.600 katom-step/s
96.1% CPU use with 1 MPI tasks x 8 OpenMP threads

MPI task timing breakdown:
Section |  min time  |  avg time  |  max time  |%varavg| %total
---------------------------------------------------------------
Pair    | 532.68     | 532.68     | 532.68     |   0.0 | 90.26
Neigh   | 0.019378   | 0.019378   | 0.019378   |   0.0 |  0.00
Comm    | 0.70147    | 0.70147    | 0.70147    |   0.0 |  0.12
Output  | 0.009117   | 0.009117   | 0.009117   |   0.0 |  0.00
Modify  | 56.601     | 56.601     | 56.601     |   0.0 |  9.59
Other   |            | 0.1515     |            |       |  0.03

Nlocal:            432 ave         432 max         432 min
Histogram: 1 0 0 0 0 0 0 0 0 0
Nghost:           2461 ave        2461 max        2461 min
Histogram: 1 0 0 0 0 0 0 0 0 0
Neighs:          31857 ave       31857 max       31857 min
Histogram: 1 0 0 0 0 0 0 0 0 0
FullNghs:        63714 ave       63714 max       63714 min
Histogram: 1 0 0 0 0 0 0 0 0 0

Total # of neighbors = 63714
Ave neighs/atom = 147.48611
Neighbor list builds = 22
Dangerous builds = 0

=== FINAL RESULTS: DHCP at 400 K ===
Atoms: 432 | PE/atom: -3.77741889355068 eV/atom
WARNING: Detected non-ASCII characters in input. Will try to continue by replacing with ASCII equivalents where known. (src/input.cpp:479)
Volume: 6218.07766455241 …³ | Area: 292.842918539859 ²
==========================================
DHCP 400 432 -3.77741889355068 6218.07766455241 13.0028049991062 22.5215188999596 21.2334916464988 292.842918539859
Simulation complete!
Total wall time: 0:13:39
