LAMMPS (10 Sep 2025)
  using 8 OpenMP thread(s) per MPI task
Loaded 1 plugins from C:\Users\kumar\AppData\Local\LAMMPS 64-bit 10Sep2025\plugins
using multi-threaded neighbor list subroutines
Reading data file ...
  orthogonal box = (0 0 0) to (23.124 23.124 23.124)
  1 by 1 by 1 MPI processor grid
  reading atoms ...
  864 atoms
  read_data CPU = 0.006 seconds
=== STAGE 1: Energy Minimization ===
Switching to 'neigh_modify every 1 delay 0 check yes' setting during minimization
No /omp style for force computation currently active
Neighbor list info ...
  update: every = 1 steps, delay = 0 steps, check = yes
  max neighbors/atom: 4000, page size: 100000
  master list distance cutoff = 8
  ghost atom cutoff = 8
  binsize = 4, bins = 6 6 6
  2 neighbor lists, perpetual/occasional/extra = 2 0 0
  (1) pair meam, perpetual
      attributes: full, newton on, omp
      pair build: full/bin/atomonly/omp
      stencil: full/bin/3d
      bin: standard
  (2) pair meam, perpetual, half/full from (1)
      attributes: half, newton on, omp
      pair build: halffull/newton/omp
      stencil: none
      bin: none
Setting up cg style minimization ...
  Unit style    : metal
  Current step  : 0
Per MPI rank memory allocation (min/avg/max) = 20.91 | 20.91 | 20.91 Mbytes
   Step          Temp          PotEng         KinEng         TotEng         Press          Volume           Lx             Ly             Lz      
         0   0             -3142.4322      0             -3142.4322     -32578.606      12364.851      23.124         23.124         23.124       
        12   0             -3231.4867      0             -3231.4867     -36742.402      12364.851      23.124         23.124         23.124       
Loop time of 0.55716 on 8 procs for 12 steps with 864 atoms

95.3% CPU use with 1 MPI tasks x 8 OpenMP threads

Minimization stats:
  Stopping criterion = energy tolerance
  Energy initial, next-to-last, final = 
      -3142.4322077761  -3231.48577904013  -3231.48667589571
  Force two-norm initial, final = 61.331761 23.365577
  Force max component initial, final = 5.3387426 7.6443407
  Final line search alpha, max atom move = 0.048388406 0.36989746
  Iterations, force evaluations = 12 24

MPI task timing breakdown:
Section |  min time  |  avg time  |  max time  |%varavg| %total
---------------------------------------------------------------
Pair    | 0.55199    | 0.55199    | 0.55199    |   0.0 | 99.07
Neigh   | 0          | 0          | 0          |   0.0 |  0.00
Comm    | 0.000604   | 0.000604   | 0.000604   |   0.0 |  0.11
Output  | 0          | 0          | 0          |   0.0 |  0.00
Modify  | 0.003926   | 0.003926   | 0.003926   |   0.0 |  0.70
Other   |            | 0.000637   |            |       |  0.11

Nlocal:            864 ave         864 max         864 min
Histogram: 1 0 0 0 0 0 0 0 0 0
Nghost:           3767 ave        3767 max        3767 min
Histogram: 1 0 0 0 0 0 0 0 0 0
Neighs:          60480 ave       60480 max       60480 min
Histogram: 1 0 0 0 0 0 0 0 0 0
FullNghs:       120960 ave      120960 max      120960 min
Histogram: 1 0 0 0 0 0 0 0 0 0

Total # of neighbors = 120960
Ave neighs/atom = 140
Neighbor list builds = 0
Dangerous builds = 0
Minimized PE/atom: -3.74014661562004 eV/atom
=== STAGE 2: NPT Equilibration at 200 K ===
No /omp style for force computation currently active
Setting up Verlet run ...
  Unit style    : metal
  Current step  : 0
  Time step     : 0.002
Per MPI rank memory allocation (min/avg/max) = 19.82 | 19.82 | 19.82 Mbytes
   Step          Temp          PotEng         KinEng         TotEng         Press          Volume           Lx             Ly             Lz      
         0   200           -3231.4867      22.310301     -3209.1764     -34815.162      12364.851      23.124         23.124         23.124       
       500   193.05681     -3240.001       21.535777     -3218.4653      914.04548      11694.673      22.698441      22.698441      22.698441    
      1000   206.96774     -3240.8001      23.087563     -3217.7125      1984.9644      11671.575      22.683487      22.683487      22.683487    
      1500   208.02411     -3241.8527      23.205403     -3218.6473     -847.25717      11695.747      22.699136      22.699136      22.699136    
      2000   194.57266     -3241.1136      21.704873     -3219.4087     -2019.9355      11716.06       22.712269      22.712269      22.712269    
      2500   202.11464     -3242.6092      22.546192     -3220.063      -1403.1638      11716.884      22.712802      22.712802      22.712802    
      3000   203.22884     -3243.5295      22.670483     -3220.8591     -1268.0924      11712.11       22.709717      22.709717      22.709717    
      3500   208.2839      -3243.6715      23.234383     -3220.4371     -1546.0614      11710.691      22.7088        22.7088        22.7088      
      4000   198.24019     -3243.4282      22.113992     -3221.3142      542.30068      11691.256      22.69623       22.69623       22.69623     
      4500   200.69671     -3244.7675      22.38802      -3222.3795     -334.86264      11687.721      22.693942      22.693942      22.693942    
      5000   200.57221     -3244.946       22.374132     -3222.5719      477.92686      11659.009      22.675344      22.675344      22.675344    
      5500   198.86106     -3245.1332      22.183251     -3222.9499     -549.63388      11692.726      22.697181      22.697181      22.697181    
      6000   201.18144     -3247.0443      22.442093     -3224.6022     -34.000461      11672.125      22.683843      22.683843      22.683843    
      6500   191.3714      -3246.2197      21.347767     -3224.8719     -1305.7699      11684.402      22.691794      22.691794      22.691794    
      7000   205.90552     -3246.2286      22.96907      -3223.2595      1589.9811      11647.786      22.668066      22.668066      22.668066    
      7500   208.05331     -3245.9944      23.208659     -3222.7858     -1212.7338      11660.995      22.676631      22.676631      22.676631    
      8000   191.32351     -3246.9777      21.342425     -3225.6353      472.91663      11640.273      22.663191      22.663191      22.663191    
      8500   203.65623     -3246.888       22.718159     -3224.1698      995.51997      11648.088      22.668262      22.668262      22.668262    
      9000   206.00183     -3247.7154      22.979814     -3224.7356      738.18812      11648.701      22.668659      22.668659      22.668659    
      9500   196.4884      -3247.9549      21.918577     -3226.0363     -1271.3649      11660.696      22.676438      22.676438      22.676438    
     10000   199.39863     -3247.6624      22.243217     -3225.4192      1058.0689      11643.263      22.665131      22.665131      22.665131    
     10500   200.81182     -3247.0113      22.400861     -3224.6105     -1743.4612      11660.606      22.676379      22.676379      22.676379    
     11000   201.1789      -3247.4465      22.44181      -3225.0047     -427.7379       11664.956      22.679199      22.679199      22.679199    
     11500   198.98513     -3249.0005      22.19709      -3226.8035      2415.6873      11616.269      22.647602      22.647602      22.647602    
     12000   199.60889     -3248.4239      22.266672     -3226.1573      2751.7719      11620.779      22.650533      22.650533      22.650533    
     12500   206.44743     -3248.7306      23.029521     -3225.7011      1925.3951      11625.93       22.653879      22.653879      22.653879    
     13000   197.68973     -3246.6041      22.052587     -3224.5515      749.58944      11651.138      22.67024       22.67024       22.67024     
     13500   193.49538     -3246.6405      21.584701     -3225.0558     -396.05779      11661.905      22.677221      22.677221      22.677221    
     14000   196.37973     -3248.2358      21.906454     -3226.3293      1511.5792      11626.357      22.654156      22.654156      22.654156    
     14500   203.08595     -3248.8503      22.654543     -3226.1958      2188.004       11618.479      22.649038      22.649038      22.649038    
     15000   195.4748      -3247.0226      21.805508     -3225.2171     -2852.1735      11661.929      22.677236      22.677236      22.677236    
     15500   203.07014     -3246.7128      22.652779     -3224.06       -2608.5771      11697.473      22.700253      22.700253      22.700253    
     16000   205.74423     -3248.3318      22.951079     -3225.3807     -1422.959       11674.605      22.68545       22.68545       22.68545     
     16500   191.68567     -3247.4982      21.382825     -3226.1154      2185.6071      11614.338      22.646347      22.646347      22.646347    
     17000   200.22884     -3247.8123      22.335829     -3225.4765     -74.987209      11656.921      22.67399       22.67399       22.67399     
     17500   203.70906     -3247.6376      22.724052     -3224.9135      403.42457      11660.027      22.676003      22.676003      22.676003    
     18000   205.21734     -3247.0542      22.892304     -3224.1619     -729.66245      11678.631      22.688057      22.688057      22.688057    
     18500   196.49164     -3247.5322      21.918938     -3225.6133      197.13924      11634.422      22.659393      22.659393      22.659393    
     19000   196.5141      -3248.5842      21.921443     -3226.6628      3774.7812      11601.113      22.637748      22.637748      22.637748    
     19500   213.02744     -3246.876       23.763532     -3223.1125      519.76815      11660.245      22.676145      22.676145      22.676145    
     20000   205.8182      -3248.9725      22.95933      -3226.0132      820.59673      11622.779      22.651831      22.651831      22.651831    
Loop time of 499.882 on 8 procs for 20000 steps with 864 atoms

Performance: 6.914 ns/day, 3.471 hours/ns, 40.009 timesteps/s, 34.568 katom-step/s
96.3% CPU use with 1 MPI tasks x 8 OpenMP threads

MPI task timing breakdown:
Section |  min time  |  avg time  |  max time  |%varavg| %total
---------------------------------------------------------------
Pair    | 475.21     | 475.21     | 475.21     |   0.0 | 95.06
Neigh   | 0.004965   | 0.004965   | 0.004965   |   0.0 |  0.00
Comm    | 0.45865    | 0.45865    | 0.45865    |   0.0 |  0.09
Output  | 0.004139   | 0.004139   | 0.004139   |   0.0 |  0.00
Modify  | 24.118     | 24.118     | 24.118     |   0.0 |  4.82
Other   |            | 0.08531    |            |       |  0.02

Nlocal:            864 ave         864 max         864 min
Histogram: 1 0 0 0 0 0 0 0 0 0
Nghost:           3687 ave        3687 max        3687 min
Histogram: 1 0 0 0 0 0 0 0 0 0
Neighs:          68173 ave       68173 max       68173 min
Histogram: 1 0 0 0 0 0 0 0 0 0
FullNghs:       136346 ave      136346 max      136346 min
Histogram: 1 0 0 0 0 0 0 0 0 0

Total # of neighbors = 136346
Ave neighs/atom = 157.80787
Neighbor list builds = 3
Dangerous builds = 0
=== STAGE 3: NPT Production at 200 K ===
No /omp style for force computation currently active
Setting up Verlet run ...
  Unit style    : metal
  Current step  : 0
  Time step     : 0.001
Per MPI rank memory allocation (min/avg/max) = 19.97 | 19.97 | 19.97 Mbytes
   Step          Temp          PotEng         KinEng         TotEng         Press          Volume           Lx             Ly             Lz      
         0   205.8182      -3248.9725      22.95933      -3226.0132      820.59673      11622.779      22.651831      22.651831      22.651831    
       500   200.91408     -3249.5477      22.412268     -3227.1355      3953.8926      11581.368      22.624897      22.624897      22.624897    
      1000   200.49154     -3249.174       22.365133     -3226.8089      3424.4604      11604.869      22.640191      22.640191      22.640191    
      1500   197.79769     -3248.2966      22.06463      -3226.232      -486.94424      11647.279      22.667737      22.667737      22.667737    
      2000   200.06297     -3247.387       22.317326     -3225.0697     -2318.3488      11661.129      22.676718      22.676718      22.676718    
      2500   197.66857     -3248.6169      22.050227     -3226.5666     -914.88453      11647.116      22.667631      22.667631      22.667631    
      3000   200.02124     -3248.5013      22.312671     -3226.1886      718.89828      11624.34       22.652846      22.652846      22.652846    
      3500   200.13554     -3247.5802      22.325421     -3225.2547      1680.7625      11626.908      22.654514      22.654514      22.654514    
      4000   204.16466     -3248.9154      22.774875     -3226.1405     -63.37451       11644.332      22.665825      22.665825      22.665825    
      4500   198.46787     -3249.6006      22.139389     -3227.4612      2704.1266      11604.796      22.640143      22.640143      22.640143    
      5000   202.76946     -3249.3664      22.619239     -3226.7472      972.76482      11620.79       22.65054       22.65054       22.65054     
      5500   199.38094     -3246.9892      22.241244     -3224.7479     -2409.2292      11672.345      22.683986      22.683986      22.683986    
      6000   214.31824     -3249.7159      23.907523     -3225.8084     -320.34867      11636.538      22.660767      22.660767      22.660767    
      6500   197.38007     -3248.7412      22.018044     -3226.7231     -1109.1212      11639.774      22.662867      22.662867      22.662867    
      7000   199.46773     -3250.5147      22.250925     -3228.2637      262.88375      11623.976      22.652609      22.652609      22.652609    
      7500   193.88557     -3249.9909      21.628227     -3228.3626      1007.7953      11575.283      22.620934      22.620934      22.620934    
      8000   201.2659      -3249.8525      22.451514     -3227.401      -1369.8289      11644.479      22.66592       22.66592       22.66592     
      8500   205.61728     -3249.4837      22.936917     -3226.5467      1118.8869      11600.705      22.637483      22.637483      22.637483    
      9000   206.58373     -3250.4114      23.044727     -3227.3667     -431.41006      11630.046      22.656552      22.656552      22.656552    
      9500   200.87742     -3250.8019      22.408179     -3228.3938      1099.4138      11612.658      22.645255      22.645255      22.645255    
     10000   203.4878      -3250.7253      22.69937      -3228.0259     -296.38099      11630.759      22.657015      22.657015      22.657015    
     10500   199.69678     -3249.0583      22.276477     -3226.7818     -449.79428      11623.514      22.652309      22.652309      22.652309    
     11000   208.25517     -3250.5245      23.231178     -3227.2933     -2741.7294      11647.02       22.667569      22.667569      22.667569    
     11500   198.91684     -3250.9694      22.189473     -3228.7799     -1450.1157      11643.48       22.665272      22.665272      22.665272    
     12000   201.66448     -3250.4296      22.495976     -3227.9336      62.590494      11632.17       22.657931      22.657931      22.657931    
     12500   197.09143     -3248.9215      21.985846     -3226.9357      1195.4561      11597.543      22.635426      22.635426      22.635426    
     13000   205.59415     -3249.764       22.934336     -3226.8297     -330.71267      11628.8        22.655743      22.655743      22.655743    
     13500   204.64093     -3250.5538      22.828004     -3227.7258      494.03399      11609.899      22.643461      22.643461      22.643461    
     14000   197.08117     -3250.2111      21.984701     -3228.2264      1319.981       11610.713      22.64399       22.64399       22.64399     
     14500   193.60305     -3250.2979      21.596712     -3228.7012      117.42855      11612.273      22.645005      22.645005      22.645005    
     15000   199.28472     -3249.8145      22.23051      -3227.584      -2027.5743      11634.346      22.659344      22.659344      22.659344    
     15500   202.34658     -3249.6943      22.572066     -3227.1223      854.29421      11613.693      22.645928      22.645928      22.645928    
     16000   199.37737     -3249.9937      22.240846     -3227.7529     -176.59429      11639.593      22.662749      22.662749      22.662749    
     16500   192.53587     -3250.6997      21.477666     -3229.2221     -885.22735      11620.898      22.65061       22.65061       22.65061     
     17000   201.0863      -3248.5202      22.43148      -3226.0887      816.9675       11617.209      22.648213      22.648213      22.648213    
     17500   204.21325     -3249.2335      22.780295     -3226.4532     -795.32555      11624.054      22.65266       22.65266       22.65266     
     18000   201.50879     -3249.6352      22.478609     -3227.1566      1485.4954      11612.685      22.645273      22.645273      22.645273    
     18500   188.1614      -3250.6936      20.989687     -3229.7039      2668.9587      11597.934      22.63568       22.63568       22.63568     
     19000   205.10473     -3249.0129      22.879741     -3226.1332      1025.8467      11610.335      22.643744      22.643744      22.643744    
     19500   201.11518     -3248.2939      22.434701     -3225.8592      1112.3124      11597.694      22.635524      22.635524      22.635524    
     20000   199.75268     -3249.4808      22.282712     -3227.1981      748.43942      11609.286      22.643063      22.643063      22.643063    
     20500   198.2916      -3250.0924      22.119726     -3227.9727      688.51162      11603.363      22.639212      22.639212      22.639212    
     21000   205.50584     -3250.0603      22.924486     -3227.1359     -2248.3402      11652.582      22.671177      22.671177      22.671177    
     21500   206.34678     -3250.0628      23.018294     -3227.0445     -101.69748      11639.965      22.662991      22.662991      22.662991    
     22000   198.52311     -3250.7611      22.145552     -3228.6156      791.91895      11623.967      22.652603      22.652603      22.652603    
     22500   192.63892     -3250.7152      21.489162     -3229.2261      49.95762       11640.527      22.663356      22.663356      22.663356    
     23000   195.18856     -3251.9261      21.773578     -3230.1526     -918.95469      11634.972      22.65975       22.65975       22.65975     
     23500   193.39627     -3251.0276      21.573645     -3229.4539      1407.9502      11608.146      22.642322      22.642322      22.642322    
     24000   198.50489     -3250.7996      22.143519     -3228.6561      495.48322      11638.516      22.662051      22.662051      22.662051    
     24500   202.98539     -3250.5807      22.643325     -3227.9374     -574.15176      11630.297      22.656715      22.656715      22.656715    
     25000   196.50433     -3251.1766      21.920353     -3229.2563      1040.8138      11614.565      22.646495      22.646495      22.646495    
     25500   196.88521     -3250.6838      21.962841     -3228.721       78.381881      11620.018      22.650038      22.650038      22.650038    
     26000   206.40396     -3251.7028      23.024672     -3228.6781     -650.249        11637.971      22.661696      22.661696      22.661696    
     26500   204.50589     -3251.5586      22.81294      -3228.7456     -2407.6111      11664.824      22.679113      22.679113      22.679113    
     27000   195.73426     -3251.6996      21.834451     -3229.8651     -773.95849      11648.503      22.66853       22.66853       22.66853     
     27500   201.22396     -3252.2599      22.446836     -3229.813       1636.0639      11626.495      22.654245      22.654245      22.654245    
     28000   207.37636     -3251.8217      23.133145     -3228.6885      757.33045      11601.479      22.637986      22.637986      22.637986    
     28500   206.2807      -3251.2737      23.010923     -3228.2627     -792.22138      11651.625      22.670556      22.670556      22.670556    
     29000   197.55847     -3251.5755      22.037944     -3229.5375      650.68358      11615.947      22.647393      22.647393      22.647393    
     29500   201.62344     -3252.1508      22.491399     -3229.6594      1866.6244      11601.935      22.638282      22.638282      22.638282    
     30000   197.17224     -3251.4632      21.99486      -3229.4683     -231.18093      11639.125      22.662446      22.662446      22.662446    
     30500   197.50515     -3250.5531      22.031997     -3228.5211     -1230.0702      11659.904      22.675924      22.675924      22.675924    
     31000   205.49648     -3251.4518      22.923441     -3228.5284     -1759.7182      11632.866      22.658383      22.658383      22.658383    
     31500   202.8682      -3251.6908      22.630253     -3229.0606      1143.6747      11614.07       22.646173      22.646173      22.646173    
     32000   190.24104     -3251.5254      21.221674     -3230.3037     -2352.3923      11648.351      22.668432      22.668432      22.668432    
     32500   196.36028     -3251.0516      21.904285     -3229.1473      1326.0415      11608.072      22.642274      22.642274      22.642274    
     33000   205.02339     -3251.9455      22.870667     -3229.0749     -1254.0403      11650.892      22.67008       22.67008       22.67008     
     33500   198.93751     -3252.3513      22.191779     -3230.1595     -714.06294      11635.196      22.659895      22.659895      22.659895    
     34000   196.54553     -3251.1523      21.92495      -3229.2273     -601.39674      11634.036      22.659143      22.659143      22.659143    
     34500   189.35796     -3251.8181      21.123166     -3230.695       1103.8972      11599.58       22.63675       22.63675       22.63675     
     35000   205.93987     -3253.117       22.972902     -3230.1441      570.21509      11596.041      22.634448      22.634448      22.634448    
     35500   204.60746     -3251.6552      22.82427      -3228.831      -744.52619      11640.444      22.663302      22.663302      22.663302    
     36000   202.26389     -3251.5411      22.562842     -3228.9783     -303.12938      11618.036      22.64875       22.64875       22.64875     
     36500   198.97783     -3251.4758      22.196277     -3229.2795      1953.5902      11575.234      22.620902      22.620902      22.620902    
     37000   196.78874     -3252.7163      21.95208      -3230.7642     -203.89469      11592.192      22.631944      22.631944      22.631944    
     37500   193.55529     -3252.4617      21.591384     -3230.8704      125.97091      11622.924      22.651926      22.651926      22.651926    
     38000   196.09246     -3250.923       21.874409     -3229.0486     -2479.3695      11639.273      22.662542      22.662542      22.662542    
     38500   207.15        -3252.3128      23.107894     -3229.2049      614.59716      11624.813      22.653153      22.653153      22.653153    
     39000   188.70136     -3253.0544      21.049921     -3232.0045     -933.85113      11631.888      22.657748      22.657748      22.657748    
     39500   200.1698      -3250.7523      22.329243     -3228.4231     -368.46491      11629.812      22.6564        22.6564        22.6564      
     40000   199.7278      -3251.2748      22.279937     -3228.9949      1942.3338      11596.503      22.634749      22.634749      22.634749    
     40500   197.91834     -3251.3304      22.078089     -3229.2524      181.02737      11627.251      22.654737      22.654737      22.654737    
     41000   196.13724     -3252.1396      21.879405     -3230.2602     -1462.5826      11644.325      22.66582       22.66582       22.66582     
     41500   196.64        -3251.731       21.935488     -3229.7955     -415.13767      11620.846      22.650576      22.650576      22.650576    
     42000   208.74946     -3251.1166      23.286317     -3227.8303     -547.67042      11633.265      22.658642      22.658642      22.658642    
     42500   197.84376     -3252.8905      22.06977      -3230.8207      548.08112      11603.925      22.639577      22.639577      22.639577    
     43000   195.89931     -3252.2472      21.852863     -3230.3944      2597.8645      11591.982      22.631807      22.631807      22.631807    
     43500   192.31763     -3250.9578      21.453321     -3229.5045      777.06626      11613.896      22.646059      22.646059      22.646059    
     44000   209.37268     -3252.1361      23.355837     -3228.7802      1105.9862      11621.627      22.651084      22.651084      22.651084    
     44500   194.71487     -3252.6102      21.720737     -3230.8895     -1988.5458      11651.204      22.670283      22.670283      22.670283    
     45000   194.53471     -3252.158       21.70064      -3230.4573     -2002.9051      11648.639      22.668619      22.668619      22.668619    
     45500   208.58019     -3252.4728      23.267434     -3229.2054     -770.69837      11647.417      22.667827      22.667827      22.667827    
     46000   205.13266     -3252.2555      22.882857     -3229.3727      149.75887      11625.936      22.653882      22.653882      22.653882    
     46500   196.23032     -3250.9319      21.889788     -3229.0421      1677.8014      11622.227      22.651473      22.651473      22.651473    
     47000   194.33593     -3251.6449      21.678466     -3229.9665      1632.7965      11610.145      22.643621      22.643621      22.643621    
     47500   187.90676     -3251.7653      20.961282     -3230.804      -1118.5414      11621.085      22.650731      22.650731      22.650731    
     48000   202.96527     -3252.4431      22.641081     -3229.802      -547.85623      11632.351      22.658048      22.658048      22.658048    
     48500   207.26642     -3251.9575      23.120881     -3228.8366      552.90716      11612.714      22.645291      22.645291      22.645291    
     49000   203.72003     -3252.062       22.725276     -3229.3367      1540.326       11617.503      22.648404      22.648404      22.648404    
     49500   202.79641     -3251.4229      22.622245     -3228.8007     -2114.3626      11651.111      22.670222      22.670222      22.670222    
     50000   205.17805     -3251.2764      22.88792      -3228.3885      1116.5773      11600.009      22.63703       22.63703       22.63703     
Loop time of 1239.5 on 8 procs for 50000 steps with 864 atoms

Performance: 3.485 ns/day, 6.886 hours/ns, 40.339 timesteps/s, 34.853 katom-step/s
96.3% CPU use with 1 MPI tasks x 8 OpenMP threads

MPI task timing breakdown:
Section |  min time  |  avg time  |  max time  |%varavg| %total
---------------------------------------------------------------
Pair    | 1178.2     | 1178.2     | 1178.2     |   0.0 | 95.06
Neigh   | 0.003971   | 0.003971   | 0.003971   |   0.0 |  0.00
Comm    | 1.1332     | 1.1332     | 1.1332     |   0.0 |  0.09
Output  | 0.009162   | 0.009162   | 0.009162   |   0.0 |  0.00
Modify  | 59.913     | 59.913     | 59.913     |   0.0 |  4.83
Other   |            | 0.2023     |            |       |  0.02

Nlocal:            864 ave         864 max         864 min
Histogram: 1 0 0 0 0 0 0 0 0 0
Nghost:           3619 ave        3619 max        3619 min
Histogram: 1 0 0 0 0 0 0 0 0 0
Neighs:          68353 ave       68353 max       68353 min
Histogram: 1 0 0 0 0 0 0 0 0 0
FullNghs:       136706 ave      136706 max      136706 min
Histogram: 1 0 0 0 0 0 0 0 0 0

Total # of neighbors = 136706
Ave neighs/atom = 158.22454
Neighbor list builds = 3
Dangerous builds = 0

=== FINAL RESULTS: FCC at 200 K ===
Atoms: 864 | PE/atom: -3.76378942261145 eV/atom
WARNING: Detected non-ASCII characters in input. Will try to continue by replacing with ASCII equivalents where known. (src/input.cpp:479)
Volume: 11600.009247243 …³ | Area: 512.435124254956 ²
==========================================
FCC 200 864 -3.76378942261145 11600.009247243 22.6370299344891 22.6370299344891 22.6370299344891 512.435124254956
Simulation complete!
Total wall time: 0:29:00
