LAMMPS (10 Sep 2025)
  using 8 OpenMP thread(s) per MPI task
Loaded 1 plugins from C:\Users\harsh\Downloads\LAMMPS 64-bit 10Sep2025\plugins
using multi-threaded neighbor list subroutines
Reading data file ...
  orthogonal box = (0 0 0) to (15.018948 26.013581 24.525839)
  1 by 1 by 1 MPI processor grid
  reading atoms ...
  432 atoms
  read_data CPU = 0.003 seconds
=== STAGE 1: Energy Minimization ===
Switching to 'neigh_modify every 1 delay 0 check yes' setting during minimization
No /omp style for force computation currently active
Neighbor list info ...
  update: every = 1 steps, delay = 0 steps, check = yes
  max neighbors/atom: 4000, page size: 100000
  master list distance cutoff = 8
  ghost atom cutoff = 8
  binsize = 4, bins = 4 7 7
  2 neighbor lists, perpetual/occasional/extra = 2 0 0
  (1) pair meam, perpetual
      attributes: full, newton on, omp
      pair build: full/bin/atomonly/omp
      stencil: full/bin/3d
      bin: standard
  (2) pair meam, perpetual, half/full from (1)
      attributes: half, newton on, omp
      pair build: halffull/newton/omp
      stencil: none
      bin: none
Setting up cg style minimization ...
  Unit style    : metal
  Current step  : 0
Per MPI rank memory allocation (min/avg/max) = 19.42 | 19.42 | 19.42 Mbytes
   Step          Temp          PotEng         KinEng         TotEng         Press          Volume           Lx             Ly             Lz      
         0   0             -1590.0128      0             -1590.0128     -53663.804      9582.1626      15.018948      26.013581      24.525839    
       500   0             -2014.8899      0             -2014.8899     -13406.294      9582.1626      15.018948      26.013581      24.525839    
       513   0             -2015.0682      0             -2015.0682     -13522.753      9582.1626      15.018948      26.013581      24.525839    
Loop time of 7.72862 on 8 procs for 513 steps with 432 atoms

96.0% CPU use with 1 MPI tasks x 8 OpenMP threads

Minimization stats:
  Stopping criterion = energy tolerance
  Energy initial, next-to-last, final = 
     -1590.01284852963  -2015.06736934808  -2015.06821356055
  Force two-norm initial, final = 40.913755 0.88061455
  Force max component initial, final = 7.6376805 0.42223518
  Final line search alpha, max atom move = 0.37931565 0.16016041
  Iterations, force evaluations = 513 985

MPI task timing breakdown:
Section |  min time  |  avg time  |  max time  |%varavg| %total
---------------------------------------------------------------
Pair    | 7.4548     | 7.4548     | 7.4548     |   0.0 | 96.46
Neigh   | 0.017592   | 0.017592   | 0.017592   |   0.0 |  0.23
Comm    | 0.006001   | 0.006001   | 0.006001   |   0.0 |  0.08
Output  | 7.1e-05    | 7.1e-05    | 7.1e-05    |   0.0 |  0.00
Modify  | 0.23478    | 0.23478    | 0.23478    |   0.0 |  3.04
Other   |            | 0.01537    |            |       |  0.20

Nlocal:            432 ave         432 max         432 min
Histogram: 1 0 0 0 0 0 0 0 0 0
Nghost:           1646 ave        1646 max        1646 min
Histogram: 1 0 0 0 0 0 0 0 0 0
Neighs:          29056 ave       29056 max       29056 min
Histogram: 1 0 0 0 0 0 0 0 0 0
FullNghs:        58112 ave       58112 max       58112 min
Histogram: 1 0 0 0 0 0 0 0 0 0

Total # of neighbors = 58112
Ave neighs/atom = 134.51852
Neighbor list builds = 21
Dangerous builds = 0
Minimized PE/atom: -4.66450975361238 eV/atom
=== STAGE 2: NPT Equilibration at 650 K ===
No /omp style for force computation currently active
Setting up Verlet run ...
  Unit style    : metal
  Current step  : 0
  Time step     : 0.002
Per MPI rank memory allocation (min/avg/max) = 18.49 | 18.49 | 18.49 Mbytes
   Step          Temp          PotEng         KinEng         TotEng         Press          Volume           Lx             Ly             Lz      
         0   650           -2015.0682      36.21223      -1978.856      -9486.1988      9582.1626      15.018948      26.013581      24.525839    
       500   682.62316     -1988.0608      38.029703     -1950.0311     -2371.2441      8117.9541      14.211302      24.614697      23.206959    
      1000   659.33077     -2001.423       36.732057     -1964.691       737.61868      7556.7394      13.875964      24.033874      22.659354    
      1500   737.10503     -2028.4061      41.064949     -1987.3411     -7182.1924      6361.622       13.102101      22.693505      21.395642    
      2000   773.4977      -2079.8843      43.092425     -2036.7919     -8171.6687      5538.0107      12.510354      21.668569      20.429323    
      2500   626.07951     -2098.989       34.879592     -2064.1094     -2942.8922      5442.718       12.438183      21.543565      20.311468    
      3000   648.97825     -2103.3843      36.155307     -2067.229       5584.7161      5410.9578      12.413942      21.501579      20.271883    
      3500   640.92569     -2104.5729      35.706689     -2068.8662      1888.1613      5422.0241      12.422399      21.516227      20.285693    
      4000   600.99705     -2111.3971      33.48222      -2077.9148      4754.1619      5378.9192      12.389392      21.459057      20.231793    
      4500   681.0087      -2112.394       37.939759     -2074.4543      5750.0775      5379.1123      12.389541      21.459314      20.232035    
      5000   670.48605     -2109.1796      37.35353      -2071.826       5501.9506      5385.6821      12.394583      21.468047      20.240269    
      5500   676.51728     -2114.3511      37.689537     -2076.6616      1542.409       5383.3684      12.392807      21.464972      20.23737     
      6000   682.56122     -2116.8593      38.026252     -2078.8331     -2978.5353      5393.2858      12.400413      21.478145      20.24979     
      6500   595.29722     -2114.8349      33.164677     -2081.6703     -3208.4717      5407.0634      12.410963      21.496419      20.267018    
      7000   636.2852      -2119.1086      35.448162     -2083.6605      1303.4672      5369.0559      12.381815      21.445933      20.219419    
      7500   627.84636     -2115.6065      34.978026     -2080.6285      4708.2454      5361.9163      12.376324      21.436422      20.210453    
      8000   668.29403     -2115.8838      37.231411     -2078.6524     -4583.4817      5412.6545      12.41524       21.503826      20.274001    
      8500   662.0976      -2117.942       36.8862       -2081.0558     -6440.1093      5399.901       12.405481      21.486923      20.258065    
      9000   659.18365     -2117.7643      36.723861     -2081.0404     -5649.3154      5392.7566      12.400007      21.477443      20.249127    
      9500   679.62471     -2116.2154      37.862656     -2078.3527      3492.5435      5376.2395      12.387335      21.455493      20.228433    
     10000   657.35195     -2117.4798      36.621815     -2080.858       2835.922       5373.9557      12.38558       21.452455      20.225568    
     10500   668.78066     -2119.5895      37.258521     -2082.331       12930.974      5319.7039      12.343761      21.38002       20.157277    
     11000   646.3067      -2120.9821      36.006472     -2084.9756      8439.3276      5329.9405      12.351673      21.393725      20.170198    
     11500   648.71759     -2119.0923      36.140785     -2082.9515     -1149.5285      5373.8973      12.385536      21.452377      20.225495    
     12000   664.24812     -2117.8333      37.006008     -2080.8273      1882.4323      5368.7836      12.381606      21.44557       20.219077    
     12500   637.36527     -2114.5814      35.508335     -2079.073      -3523.5734      5393.1382      12.4003        21.477949      20.249605    
     13000   627.63635     -2118.8893      34.966326     -2083.923      -1391.6568      5381.966       12.391731      21.463108      20.235612    
     13500   649.7794      -2120.9705      36.19994      -2084.7706     -449.31356      5363.4964      12.37754       21.438528      20.212438    
     14000   629.19539     -2118.7267      35.053181     -2083.6735      5005.643       5358.784       12.373914      21.432247      20.206517    
     14500   653.21457     -2117.1429      36.391317     -2080.7516     -1481.8702      5386.4748      12.395191      21.4691        20.241262    
     15000   633.00503     -2118.3513      35.265421     -2083.0859      722.03571      5376.9566      12.387885      21.456447      20.229332    
     15500   690.09887     -2119.8435      38.446182     -2081.3973     -8355.6219      5399.7695      12.40538       21.486749      20.257901    
     16000   684.85591     -2121.0752      38.154092     -2082.9211     -2256.8773      5376.5877      12.387602      21.455956      20.228869    
     16500   660.64792     -2119.797       36.805437     -2082.9916      1174.8999      5365.4762      12.379063      21.441165      20.214925    
     17000   650.52409     -2117.4156      36.241427     -2081.1742     -2889.8465      5385.6376      12.394548      21.467988      20.240213    
     17500   650.79225     -2115.7042      36.256367     -2079.4478     -5473.9321      5415.1168      12.417122      21.507086      20.277075    
     18000   672.28536     -2118.802       37.453772     -2081.3482     -13514.073      5425.1352      12.424775      21.520341      20.289572    
     18500   654.59647     -2119.0822      36.468304     -2082.6139     -3043.1433      5375.492       12.386761      21.454499      20.227495    
     19000   662.54308     -2118.735       36.911019     -2081.824      -1619.1319      5377.8098      12.388541      21.457582      20.230402    
     19500   669.55385     -2121.335       37.301596     -2084.0334      1721.9303      5359.5879      12.374533      21.433319      20.207527    
     20000   657.08581     -2118.3792      36.606988     -2081.7722     -4487.7936      5389.1025      12.397206      21.472591      20.244553    
Loop time of 229.664 on 8 procs for 20000 steps with 432 atoms

Performance: 15.048 ns/day, 1.595 hours/ns, 87.084 timesteps/s, 37.620 katom-step/s
93.2% CPU use with 1 MPI tasks x 8 OpenMP threads

MPI task timing breakdown:
Section |  min time  |  avg time  |  max time  |%varavg| %total
---------------------------------------------------------------
Pair    | 210.35     | 210.35     | 210.35     |   0.0 | 91.59
Neigh   | 0.060342   | 0.060342   | 0.060342   |   0.0 |  0.03
Comm    | 0.14593    | 0.14593    | 0.14593    |   0.0 |  0.06
Output  | 0.002629   | 0.002629   | 0.002629   |   0.0 |  0.00
Modify  | 19.07      | 19.07      | 19.07      |   0.0 |  8.30
Other   |            | 0.03146    |            |       |  0.01

Nlocal:            432 ave         432 max         432 min
Histogram: 1 0 0 0 0 0 0 0 0 0
Nghost:           2645 ave        2645 max        2645 min
Histogram: 1 0 0 0 0 0 0 0 0 0
Neighs:          36917 ave       36917 max       36917 min
Histogram: 1 0 0 0 0 0 0 0 0 0
FullNghs:        73834 ave       73834 max       73834 min
Histogram: 1 0 0 0 0 0 0 0 0 0

Total # of neighbors = 73834
Ave neighs/atom = 170.91204
Neighbor list builds = 65
Dangerous builds = 0
=== STAGE 3: NPT Production at 650 K ===
No /omp style for force computation currently active
Setting up Verlet run ...
  Unit style    : metal
  Current step  : 0
  Time step     : 0.001
Per MPI rank memory allocation (min/avg/max) = 18.89 | 18.89 | 18.89 Mbytes
   Step          Temp          PotEng         KinEng         TotEng         Press          Volume           Lx             Ly             Lz      
         0   657.08581     -2118.3792      36.606988     -2081.7722     -4487.7936      5389.1025      12.397206      21.472591      20.244553    
       500   673.53199     -2121.6395      37.523223     -2084.1163     -5093.4155      5386.8261      12.39546       21.469567      20.241702    
      1000   617.01477     -2124.458       34.374585     -2090.0834      4913.3246      5337.3772      12.357415      21.403671      20.179574    
      1500   660.59898     -2118.6367      36.802711     -2081.834       679.97864      5375.9517      12.387114      21.45511       20.228072    
      2000   649.90908     -2117.3242      36.207164     -2081.117      -5020.5916      5398.2391      12.404208      21.484719      20.255987    
      2500   611.17051     -2120.4019      34.048995     -2086.3529     -2241.7401      5373.1982      12.384998      21.451447      20.224618    
      3000   663.62395     -2120.1301      36.971235     -2083.1589     -1944.2946      5371.114       12.383397      21.448673      20.222002    
      3500   685.39415     -2120.9296      38.184077     -2082.7455      782.36792      5370.9654      12.383283      21.448475      20.221816    
      4000   640.53173     -2121.1085      35.684741     -2085.4238      7235.1651      5349.9512      12.367111      21.420465      20.195409    
      4500   629.34127     -2122.5937      35.061309     -2087.5324      4586.6625      5351.3043      12.368154      21.422271      20.197111    
      5000   638.20376     -2119.8824      35.555048     -2084.3274     -854.87472      5379.9821      12.390208      21.460471      20.233126    
      5500   620.83281     -2117.0817      34.587293     -2082.4944      557.81713      5392.5042      12.399814      21.477108      20.248811    
      6000   662.37856     -2123.4588      36.901853     -2086.557      -1583.5084      5358.2601      12.37351       21.431549      20.205858    
      6500   628.67105     -2122.757       35.02397      -2087.733      -2813.8831      5382.7515      12.392334      21.464152      20.236597    
      7000   678.00615     -2122.1009      37.772484     -2084.3284      5379.9504      5345.6302      12.363781      21.414697      20.18997     
      7500   667.12477     -2118.6476      37.16627      -2081.4813      2303.6161      5364.529       12.378334      21.439904      20.213735    
      8000   644.57524     -2118.5597      35.91001      -2082.6497     -4125.6836      5394.3019      12.401192      21.479494      20.251061    
      8500   649.3172      -2119.6181      36.17419      -2083.4439      5130.7227      5362.9695      12.377135      21.437826      20.211776    
      9000   684.07165     -2120.0134      38.110399     -2081.903       4.063826       5378.5744      12.389128      21.458599      20.231361    
      9500   643.07277     -2121.9919      35.826306     -2086.1656      4883.6903      5356.7751      12.372367      21.429569      20.203991    
     10000   593.93576     -2121.9368      33.088828     -2088.848       10905.249      5318.5612      12.342877      21.378489      20.155833    
     10500   679.11225     -2126.1611      37.834106     -2088.327       2141.3682      5343.0637      12.361802      21.411269      20.186738    
     11000   654.82064     -2123.7796      36.480793     -2087.2988      4387.2615      5341.7823      12.360814      21.409557      20.185124    
     11500   683.53684     -2122.3687      38.080605     -2084.2881      2422.5417      5367.46        12.380588      21.443808      20.217416    
     12000   704.18989     -2121.4562      39.231209     -2082.225       880.3998       5370.393       12.382843      21.447713      20.221098    
     12500   666.11063     -2122.0315      37.109771     -2084.9218      1718.254       5363.2443      12.377346      21.438192      20.212121    
     13000   637.95923     -2121.9912      35.541425     -2086.4498      3453.154       5365.9679      12.379441      21.44182       20.215542    
     13500   657.03621     -2121.3709      36.604225     -2084.7667     -689.32898      5373.5174      12.385244      21.451871      20.225018    
     14000   630.39976     -2124.5237      35.120278     -2089.4034      1355.2139      5351.1341      12.368023      21.422044      20.196897    
     14500   643.91447     -2124.3495      35.873198     -2088.4763     -4126.4804      5377.7714      12.388511      21.457531      20.230354    
     15000   651.0197      -2123.2046      36.269038     -2086.9356     -3569.4718      5376.697       12.387686      21.456102      20.229007    
     15500   601.98678     -2123.3072      33.537359     -2089.7698     -994.06805      5365.1968      12.378848      21.440793      20.214574    
     16000   665.9165      -2120.4127      37.098956     -2083.3137     -858.90504      5390.3137      12.398135      21.474199      20.246069    
     16500   689.76741     -2120.5685      38.427717     -2082.1408      6407.2719      5348.0568      12.365652      21.417937      20.193024    
     17000   637.83389     -2122.5983      35.534442     -2087.0639      6144.4912      5344.1214      12.362618      21.412682      20.18807     
     17500   661.62351     -2121.59        36.859788     -2084.7302      654.98931      5364.56        12.378358      21.439945      20.213774    
     18000   653.68701     -2118.9743      36.417637     -2082.5567     -273.60812      5390.3604      12.39817       21.474261      20.246128    
     18500   651.34193     -2120.859       36.28699      -2084.572       2494.2194      5361.9745      12.376369      21.4365        20.210526    
     19000   644.26923     -2121.7909      35.892962     -2085.8979      1172.1596      5370.9235      12.38325       21.448419      20.221763    
     19500   624.50754     -2120.4748      34.792016     -2085.6828      3355.9602      5363.7281      12.377718      21.438837      20.212729    
     20000   689.34275     -2120.4626      38.404058     -2082.0585     -400.08816      5390.5797      12.398339      21.474552      20.246402    
     20500   684.60723     -2119.6152      38.140237     -2081.475       2774.9598      5384.1165      12.393381      21.465966      20.238307    
     21000   621.01763     -2121.385       34.597589     -2086.7874      4635.0897      5361.7058      12.376162      21.436142      20.210188    
     21500   679.32401     -2121.3237      37.845903     -2083.4778      1039.2325      5383.3439      12.392789      21.46494       20.237339    
     22000   680.52224     -2122.2525      37.912658     -2084.3399      1706.4625      5366.6216      12.379943      21.442691      20.216363    
     22500   628.85286     -2123.0911      35.034099     -2088.057      -2902.7205      5385.8097      12.394681      21.468216      20.240429    
     23000   615.38703     -2123.93        34.283902     -2089.6461     -3802.0739      5383.9446      12.39325       21.465738      20.238092    
     23500   638.08486     -2121.9283      35.548424     -2086.3798     -622.7905       5380.2129      12.390386      21.460777      20.233415    
     24000   671.60141     -2122.8726      37.415668     -2085.4569      1467.9302      5353.7524      12.37004       21.425537      20.20019     
     24500   587.73743     -2121.9219      32.743512     -2089.1784     -2230.595       5386.5366      12.395238      21.469182      20.241339    
     25000   641.15846     -2124.1112      35.719658     -2088.3915     -4298.1799      5379.3253      12.389704      21.459597      20.232302    
     25500   652.03739     -2122.7336      36.325735     -2086.4079     -5112.9103      5380.7294      12.390782      21.461464      20.234062    
     26000   670.0318      -2121.0144      37.328224     -2083.6862     -910.38395      5382.8916      12.392442      21.464338      20.236772    
     26500   697.14829     -2121.5572      38.838914     -2082.7183     -2446.7802      5382.3894      12.392056      21.463671      20.236143    
     27000   619.49583     -2121.9937      34.512808     -2087.4809      2173.0421      5357.9445      12.373268      21.431128      20.205461    
     27500   627.75966     -2122.8607      34.973195     -2087.8875     -4070.9468      5379.1893      12.3896        21.459416      20.232132    
     28000   682.5686      -2124.6577      38.026663     -2086.631      -5233.6358      5376.4981      12.387533      21.455837      20.228757    
     28500   652.7857      -2120.4958      36.367424     -2084.1283      7836.5099      5344.799       12.36314       21.413587      20.188923    
     29000   604.84224     -2121.397       33.69644      -2087.7006      5592.8408      5344.3338      12.362782      21.412966      20.188338    
     29500   632.80634     -2123.5963      35.254351     -2088.342       6452.3819      5338.0847      12.357961      21.404616      20.180466    
     30000   621.12921     -2121.9166      34.603806     -2087.3128      4779.2889      5351.429       12.36825       21.422438      20.197268    
     30500   663.01647     -2121.9813      36.937392     -2085.0439      4564.7291      5358.9804      12.374065      21.432509      20.206763    
     31000   667.84809     -2120.6936      37.206567     -2083.4871     -2615.919       5395.3344      12.401983      21.480864      20.252353    
     31500   652.75336     -2120.0769      36.365622     -2083.7112      7362.2945      5355.0957      12.371074      21.427329      20.20188     
     32000   621.92439     -2121.4722      34.648106     -2086.8241      3784.8759      5372.3332      12.384334      21.450295      20.223532    
     32500   635.20099     -2121.4812      35.38776      -2086.0935      4228.3944      5357.3207      12.372787      21.430296      20.204677    
     33000   639.55197     -2122.3148      35.630158     -2086.6847     -363.60587      5373.6401      12.385338      21.452035      20.225172    
     33500   637.33924     -2121.4608      35.506885     -2085.9539      1062.2373      5380.1539      12.39034       21.460699      20.233341    
     34000   664.58101     -2120.9177      37.024554     -2083.8932     -1446.9606      5385.2389      12.394243      21.467458      20.239713    
     34500   687.24863     -2120.9954      38.287393     -2082.708      -422.53405      5377.3477      12.388186      21.456967      20.229823    
     35000   647.36824     -2123.1223      36.065611     -2087.0567     -976.88891      5369.9395      12.382494      21.447109      20.220528    
     35500   667.34372     -2123.8209      37.178468     -2086.6424     -12183.856      5416.8887      12.418476      21.509432      20.279287    
     36000   658.28961     -2122.0542      36.674053     -2085.3801     -7361.0233      5387.212       12.395756      21.470079      20.242185    
     36500   715.26154     -2119.5055      39.848023     -2079.6574     -553.96394      5394.4839      12.401331      21.479735      20.251289    
     37000   649.5536      -2121.1264      36.18736      -2084.9391     -5984.1651      5389.1514      12.397243      21.472656      20.244614    
     37500   667.17833     -2123.5111      37.169253     -2086.3419     -6673.5063      5397.9672      12.404         21.484358      20.255647    
     38000   655.93446     -2124.5644      36.542845     -2088.0215     -6784.3584      5392.8161      12.400053      21.477522      20.249202    
     38500   634.19005     -2122.7698      35.33144      -2087.4383     -3504.0836      5393.613       12.400664      21.47858       20.250199    
     39000   662.22211     -2122.3617      36.893137     -2085.4686     -8133.5234      5390.5048      12.398281      21.474453      20.246308    
     39500   649.00406     -2121.2092      36.156745     -2085.0524     -5475.0356      5391.5224      12.399061      21.475804      20.247582    
     40000   621.33505     -2122.6717      34.615273     -2088.0564     -4654.4099      5397.2679      12.403464      21.48343       20.254772    
     40500   610.44528     -2122.2778      34.008592     -2088.2692     -5583.3235      5378.6407      12.389179      21.458687      20.231444    
     41000   614.86548     -2125.0316      34.254846     -2090.7768     -114.25706      5362.6779      12.37691       21.437437      20.21141     
     41500   620.90795     -2122.6792      34.591479     -2088.0878     -702.9398       5379.4532      12.389802      21.459767      20.232463    
     42000   664.98489     -2123.5715      37.047055     -2086.5245     -262.72383      5369.6118      12.382242      21.446673      20.220117    
     42500   648.20199     -2121.1363      36.112061     -2085.0242      419.9072       5387.2873      12.395814      21.470179      20.242279    
     43000   650.59982     -2121.8839      36.245646     -2085.6382     -2131.2505      5378.5435      12.389104      21.458557      20.231322    
     43500   628.46167     -2121.0692      35.012305     -2086.0569      1418.6855      5362.2029      12.376545      21.436804      20.210813    
     44000   596.01701     -2123.4277      33.204776     -2090.2229      5126.4878      5345.051       12.363335      21.413924      20.189241    
     44500   642.24071     -2122.5288      35.779951     -2086.7488     -279.83636      5372.9792      12.38483       21.451155      20.224343    
     45000   630.28883     -2118.6724      35.114098     -2083.5583     -5448.3244      5386.8655      12.39549       21.469619      20.241751    
     45500   652.57526     -2121.9656      36.3557       -2085.6099      665.40071      5372.7518      12.384655      21.450852      20.224058    
     46000   616.39194     -2122.1073      34.339887     -2087.7674      1504.1437      5369.8547      12.382429      21.446996      20.220422    
     46500   633.18409     -2123.5438      35.275396     -2088.2684      3182.317       5366.6395      12.379957      21.442715      20.216385    
     47000   641.64288     -2123.0321      35.746645     -2087.2855      1769.4829      5358.9917      12.374074      21.432524      20.206778    
     47500   678.46428     -2121.5372      37.798007     -2083.7392      3623.6145      5373.3775      12.385136      21.451685      20.224843    
     48000   597.10442     -2123.9413      33.265357     -2090.6759      4369.0163      5351.8526      12.368576      21.423003      20.197801    
     48500   647.0264      -2124.9409      36.046567     -2088.8943     -1614.5361      5363.6518      12.377659      21.438735      20.212633    
     49000   649.21868     -2120.9842      36.168701     -2084.8155     -3758.1433      5392.5313      12.399835      21.477144      20.248845    
     49500   646.6305      -2123.8378      36.024511     -2087.8133      1843.041       5370.3928      12.382843      21.447713      20.221097    
     50000   677.45186     -2123.4134      37.741604     -2085.6718      5576.0162      5348.9205      12.366317      21.41909       20.194111    
Loop time of 570.225 on 8 procs for 50000 steps with 432 atoms

Performance: 7.576 ns/day, 3.168 hours/ns, 87.685 timesteps/s, 37.880 katom-step/s
93.6% CPU use with 1 MPI tasks x 8 OpenMP threads

MPI task timing breakdown:
Section |  min time  |  avg time  |  max time  |%varavg| %total
---------------------------------------------------------------
Pair    | 525.25     | 525.25     | 525.25     |   0.0 | 92.11
Neigh   | 0.031448   | 0.031448   | 0.031448   |   0.0 |  0.01
Comm    | 0.36008    | 0.36008    | 0.36008    |   0.0 |  0.06
Output  | 0.005381   | 0.005381   | 0.005381   |   0.0 |  0.00
Modify  | 44.519     | 44.519     | 44.519     |   0.0 |  7.81
Other   |            | 0.06401    |            |       |  0.01

Nlocal:            432 ave         432 max         432 min
Histogram: 1 0 0 0 0 0 0 0 0 0
Nghost:           2694 ave        2694 max        2694 min
Histogram: 1 0 0 0 0 0 0 0 0 0
Neighs:          36667 ave       36667 max       36667 min
Histogram: 1 0 0 0 0 0 0 0 0 0
FullNghs:        73334 ave       73334 max       73334 min
Histogram: 1 0 0 0 0 0 0 0 0 0

Total # of neighbors = 73334
Ave neighs/atom = 169.75463
Neighbor list builds = 34
Dangerous builds = 0

=== FINAL RESULTS: DHCP at 650 K ===
Atoms: 432 | PE/atom: -4.91315346208668 eV/atom
WARNING: Detected non-ASCII characters in input. Will try to continue by replacing with ASCII equivalents where known. (src/input.cpp:479)
Volume: 5348.92045172354 …³ | Area: 264.875256988495 ²
==========================================
DHCP 650 432 -4.91315346208668 5348.92045172354 12.3663171918671 21.419089683604 20.194111418855 264.875256988495
Simulation complete!
Total wall time: 0:13:27
