LAMMPS (10 Sep 2025)
  using 8 OpenMP thread(s) per MPI task
Loaded 1 plugins from C:\Users\harsh\Downloads\LAMMPS 64-bit 10Sep2025\plugins
using multi-threaded neighbor list subroutines
Reading data file ...
  orthogonal box = (0 0 0) to (15.018948 26.013581 24.525839)
  1 by 1 by 1 MPI processor grid
  reading atoms ...
  432 atoms
  read_data CPU = 0.016 seconds
=== STAGE 1: Energy Minimization ===
Switching to 'neigh_modify every 1 delay 0 check yes' setting during minimization
No /omp style for force computation currently active
Neighbor list info ...
  update: every = 1 steps, delay = 0 steps, check = yes
  max neighbors/atom: 4000, page size: 100000
  master list distance cutoff = 8
  ghost atom cutoff = 8
  binsize = 4, bins = 4 7 7
  2 neighbor lists, perpetual/occasional/extra = 2 0 0
  (1) pair meam, perpetual
      attributes: full, newton on, omp
      pair build: full/bin/atomonly/omp
      stencil: full/bin/3d
      bin: standard
  (2) pair meam, perpetual, half/full from (1)
      attributes: half, newton on, omp
      pair build: halffull/newton/omp
      stencil: none
      bin: none
Setting up cg style minimization ...
  Unit style    : metal
  Current step  : 0
Per MPI rank memory allocation (min/avg/max) = 19.46 | 19.46 | 19.46 Mbytes
   Step          Temp          PotEng         KinEng         TotEng         Press          Volume           Lx             Ly             Lz      
         0   0             -1621.6898      0             -1621.6898     -133169.73      9582.1626      15.018948      26.013581      24.525839    
       134   0             -1820.9838      0             -1820.9838     -92272.719      9582.1626      15.018948      26.013581      24.525839    
Loop time of 2.31482 on 8 procs for 134 steps with 432 atoms

96.5% CPU use with 1 MPI tasks x 8 OpenMP threads

Minimization stats:
  Stopping criterion = energy tolerance
  Energy initial, next-to-last, final = 
     -1621.68979319451  -1820.98342447433   -1820.9838018513
  Force two-norm initial, final = 13.109122 2.3445698
  Force max component initial, final = 1.2839495 0.80226052
  Final line search alpha, max atom move = 0.030860482 0.024758146
  Iterations, force evaluations = 134 380

MPI task timing breakdown:
Section |  min time  |  avg time  |  max time  |%varavg| %total
---------------------------------------------------------------
Pair    | 2.2041     | 2.2041     | 2.2041     |   0.0 | 95.22
Neigh   | 0.002985   | 0.002985   | 0.002985   |   0.0 |  0.13
Comm    | 0.002913   | 0.002913   | 0.002913   |   0.0 |  0.13
Output  | 0          | 0          | 0          |   0.0 |  0.00
Modify  | 0.10152    | 0.10152    | 0.10152    |   0.0 |  4.39
Other   |            | 0.003282   |            |       |  0.14

Nlocal:            432 ave         432 max         432 min
Histogram: 1 0 0 0 0 0 0 0 0 0
Nghost:           1943 ave        1943 max        1943 min
Histogram: 1 0 0 0 0 0 0 0 0 0
Neighs:          20943 ave       20943 max       20943 min
Histogram: 1 0 0 0 0 0 0 0 0 0
FullNghs:        41886 ave       41886 max       41886 min
Histogram: 1 0 0 0 0 0 0 0 0 0

Total # of neighbors = 41886
Ave neighs/atom = 96.958333
Neighbor list builds = 4
Dangerous builds = 0
Minimized PE/atom: -4.21524028206319 eV/atom
=== STAGE 2: NPT Equilibration at 400 K ===
No /omp style for force computation currently active
Setting up Verlet run ...
  Unit style    : metal
  Current step  : 0
  Time step     : 0.002
Per MPI rank memory allocation (min/avg/max) = 18.34 | 18.34 | 18.34 Mbytes
   Step          Temp          PotEng         KinEng         TotEng         Press          Volume           Lx             Ly             Lz      
         0   400           -1820.9838      22.284449     -1798.6994     -89788.686      9582.1626      15.018948      26.013581      24.525839    
       500   693.34993     -2076.0196      38.627303     -2037.3923     -7940.8682      5503.6869      12.484455      21.62371       20.387029    
      1000   366.4685      -2108.5863      20.416371     -2088.17        3425.4657      5338.1549      12.358015      21.40471       20.180554    
      1500   348.99981     -2111.4073      19.443171     -2091.9641      1098.8013      5346.6102      12.364537      21.416006      20.191204    
      2000   415.83844     -2113.9964      23.166826     -2090.8295     -4130.5902      5350.6719      12.367667      21.421427      20.196315    
      2500   425.239       -2117.1663      23.690542     -2093.4758      272.22577      5340.0728      12.359495      21.407273      20.182971    
      3000   406.69215     -2123.069       22.657276     -2100.4118     -984.36237      5333.9724      12.354787      21.399119      20.175282    
      3500   401.24991     -2123.4684      22.354083     -2101.1143     -2354.8655      5353.7505      12.370038      21.425535      20.200188    
      4000   375.02382     -2124.8542      20.892998     -2103.9612      3777.1791      5315.9572      12.340862      21.375         20.152543    
      4500   398.284       -2125.8894      22.188849     -2103.7005     -4255.5585      5337.8731      12.357798      21.404334      20.180199    
      5000   396.65768     -2126.4148      22.098245     -2104.3166      3770.7872      5323.7377      12.34688       21.385423      20.16237     
      5500   399.41306     -2126.8142      22.25175      -2104.5625      2490.9499      5321.9798      12.345521      21.383069      20.160151    
      6000   373.66924     -2127.219       20.817533     -2106.4014      745.5          5332.7058      12.353809      21.397425      20.173685    
      6500   375.85068     -2127.475       20.939063     -2106.5359      1793.5406      5326.2095      12.34879       21.388732      20.16549     
      7000   410.75526     -2128.0046      22.883637     -2105.121      -302.85381      5335.8156      12.35621       21.401583      20.177606    
      7500   374.52577     -2130.5615      20.865251     -2109.6963      44.58115       5321.6315      12.345251      21.382602      20.159711    
      8000   393.77546     -2130.3224      21.937673     -2108.3847      828.35711      5311.5009      12.337413      21.369025      20.14691     
      8500   401.3829      -2130.3972      22.361492     -2108.0357      1484.805       5312.9196      12.338511      21.370928      20.148704    
      9000   428.70985     -2133.1141      23.883907     -2109.2302     -4385.8028      5330.5346      12.352132      21.39452       20.170947    
      9500   381.83502     -2132.614       21.272458     -2111.3416      1830.3501      5306.395       12.333458      21.362176      20.140453    
     10000   381.40937     -2132.6767      21.248744     -2111.4279     -2408.871       5320.9541      12.344727      21.381695      20.158856    
     10500   411.94446     -2132.6702      22.949888     -2109.7204      3341.8487      5301.1145      12.329366      21.355088      20.13377     
     11000   424.76603     -2130.6495      23.664192     -2106.9853     -10082.881      5351.7726      12.368515      21.422896      20.1977      
     11500   377.29988     -2130.1015      21.0198       -2109.0817      7372.7972      5291.4191      12.321844      21.342061      20.121488    
     12000   384.66796     -2131.348       21.430284     -2109.9177     -10321.958      5351.1909      12.368067      21.42212       20.196968    
     12500   390.06436     -2132.1456      21.730923     -2110.4147      5595.312       5306.1508      12.333269      21.361848      20.140144    
     13000   378.43128     -2129.3744      21.082832     -2108.2916     -2357.8942      5331.5516      12.352918      21.395881      20.17223     
     13500   422.03069     -2131.4048      23.511803     -2107.893       1273.1756      5311.0255      12.337044      21.368388      20.146309    
     14000   425.3997      -2134.3556      23.699495     -2110.6562     -1114.2046      5329.121       12.35104       21.392629      20.169164    
     14500   392.75505     -2133.3705      21.880825     -2111.4897     -1852.1679      5325.4052      12.348169      21.387656      20.164475    
     15000   407.00981     -2133.2843      22.674973     -2110.6094      909.19268      5319.4202      12.343541      21.37964       20.156918    
     15500   393.53467     -2131.5529      21.924258     -2109.6286     -1353.4169      5333.9937      12.354803      21.399147      20.175309    
     16000   376.90654     -2130.2759      20.997887     -2109.278       1838.2618      5330.525       12.352125      21.394507      20.170935    
     16500   401.3679      -2132.2188      22.360656     -2109.8582      358.29636      5333.4622      12.354393      21.398436      20.174639    
     17000   386.34425     -2132.8951      21.523672     -2111.3714      3455.9203      5313.9798      12.339332      21.372349      20.150044    
     17500   408.11008     -2132.4323      22.73627      -2109.6961      1861.9877      5319.9141      12.343923      21.380302      20.157542    
     18000   399.81885     -2132.7252      22.274357     -2110.4508     -2019.019       5337.5145      12.357521      21.403854      20.179747    
     18500   409.98088     -2133.3877      22.840495     -2110.5472      7305.9143      5298.4357      12.327288      21.35149       20.130378    
     19000   398.8676      -2133.7458      22.221362     -2111.5244     -6205.2112      5339.313       12.358909      21.406258      20.182014    
     19500   397.16591     -2134.6796      22.126559     -2112.553       3773.6911      5309.051       12.335515      21.365739      20.143812    
     20000   405.28883     -2133.2074      22.579095     -2110.6283     -1049.0911      5322.7343      12.346104      21.384079      20.161103    
Loop time of 233.386 on 8 procs for 20000 steps with 432 atoms

Performance: 14.808 ns/day, 1.621 hours/ns, 85.695 timesteps/s, 37.020 katom-step/s
93.5% CPU use with 1 MPI tasks x 8 OpenMP threads

MPI task timing breakdown:
Section |  min time  |  avg time  |  max time  |%varavg| %total
---------------------------------------------------------------
Pair    | 214.95     | 214.95     | 214.95     |   0.0 | 92.10
Neigh   | 0.029964   | 0.029964   | 0.029964   |   0.0 |  0.01
Comm    | 0.14866    | 0.14866    | 0.14866    |   0.0 |  0.06
Output  | 0.002378   | 0.002378   | 0.002378   |   0.0 |  0.00
Modify  | 18.221     | 18.221     | 18.221     |   0.0 |  7.81
Other   |            | 0.0322     |            |       |  0.01

Nlocal:            432 ave         432 max         432 min
Histogram: 1 0 0 0 0 0 0 0 0 0
Nghost:           2665 ave        2665 max        2665 min
Histogram: 1 0 0 0 0 0 0 0 0 0
Neighs:          37260 ave       37260 max       37260 min
Histogram: 1 0 0 0 0 0 0 0 0 0
FullNghs:        74520 ave       74520 max       74520 min
Histogram: 1 0 0 0 0 0 0 0 0 0

Total # of neighbors = 74520
Ave neighs/atom = 172.5
Neighbor list builds = 32
Dangerous builds = 0
=== STAGE 3: NPT Production at 400 K ===
No /omp style for force computation currently active
Setting up Verlet run ...
  Unit style    : metal
  Current step  : 0
  Time step     : 0.001
Per MPI rank memory allocation (min/avg/max) = 18.9 | 18.9 | 18.9 Mbytes
   Step          Temp          PotEng         KinEng         TotEng         Press          Volume           Lx             Ly             Lz      
         0   405.28883     -2133.2074      22.579095     -2110.6283     -1049.0911      5322.7343      12.346104      21.384079      20.161103    
       500   377.83407     -2133.8215      21.04956      -2112.7719      3793.2236      5308.3499      12.334972      21.364799      20.142926    
      1000   404.08859     -2131.65        22.512229     -2109.1378     -954.55065      5337.9145      12.35783       21.404389      20.180251    
      1500   410.29257     -2132.9699      22.85786      -2110.112      -1862.9418      5326.3681      12.348913      21.388945      20.16569     
      2000   390.65076     -2133.4224      21.763592     -2111.6588      3282.3769      5318.7092      12.342991      21.378688      20.15602     
      2500   398.48276     -2133.556       22.199922     -2111.3561     -4083.6025      5340.0875      12.359506      21.407293      20.182989    
      3000   405.95313     -2132.016       22.616105     -2109.3999      3279.509       5318.4931      12.342824      21.378398      20.155747    
      3500   390.76843     -2132.2108      21.770148     -2110.4407     -2755.6035      5331.8293      12.353132      21.396252      20.17258     
      4000   388.16315     -2133.2529      21.625005     -2111.6279     -282.55016      5319.4758      12.343584      21.379715      20.156988    
      4500   388.89417     -2133.2838      21.665731     -2111.6181      5028.0301      5302.6827      12.330581      21.357193      20.135755    
      5000   383.61996     -2133.7211      21.371899     -2112.3492      550.17398      5310.5293      12.33666       21.367722      20.145682    
      5500   407.42167     -2133.5651      22.697919     -2110.8672      3397.9843      5298.9573      12.327693      21.352191      20.131038    
      6000   411.97376     -2134.3636      22.95152      -2111.4121     -863.38331      5323.156       12.34643       21.384644      20.161636    
      6500   389.52591     -2133.3054      21.700926     -2111.6045      884.26101      5319.8591      12.343881      21.380228      20.157473    
      7000   387.60701     -2135.2421      21.594022     -2113.6481      1267.594       5320.0142      12.344001      21.380436      20.157668    
      7500   390.72528     -2133.8218      21.767744     -2112.0541     -1667.8283      5329.42        12.351271      21.393029      20.169541    
      8000   403.01125     -2133.0759      22.452209     -2110.6237     -4758.9139      5336.1794      12.356491      21.402069      20.178065    
      8500   364.73389     -2133.3579      20.319735     -2113.0381      3466.7486      5310.4915      12.336631      21.367672      20.145634    
      9000   372.32341     -2133.741       20.742555     -2112.9985     -1815.8512      5328.596       12.350634      21.391926      20.168502    
      9500   413.53209     -2134.4877      23.038337     -2111.4493      3568.361       5311.8127      12.337654      21.369444      20.147305    
     10000   437.15186     -2135.4135      24.354221     -2111.0593     -1653.3598      5321.8089      12.345388      21.38284       20.159935    
     10500   373.95558     -2132.4889      20.833485     -2111.6555      1764.7038      5315.2617      12.340324      21.374068      20.151664    
     11000   384.71039     -2134.5801      21.432648     -2113.1474     -8246.9975      5346.3254      12.364317      21.415625      20.190845    
     11500   375.35074     -2135.1792      20.911211     -2114.2679      6687.3267      5288.7122      12.319743      21.338421      20.118056    
     12000   392.50847     -2134.4195      21.867087     -2112.5524     -6673.597       5336.8327      12.356995      21.402943      20.178888    
     12500   415.53621     -2134.357       23.149989     -2111.207       3257.4939      5305.4542      12.332729      21.360913      20.139262    
     13000   389.84392     -2134.1419      21.718642     -2112.4233     -3375.4921      5327.219       12.34957       21.390083      20.166764    
     13500   428.3619      -2133.5434      23.864522     -2109.6789      2289.935       5320.264       12.344194      21.380771      20.157984    
     14000   392.7079      -2134.0423      21.878198     -2112.1641     -7748.1765      5340.0994      12.359516      21.407309      20.183004    
     14500   391.22348     -2134.5344      21.795499     -2112.7389      336.70775      5314.3744      12.339637      21.372878      20.150543    
     15000   387.0483      -2134.7636      21.562895     -2113.2007      2430.6998      5312.869       12.338472      21.37086       20.14864     
     15500   385.0753      -2133.2346      21.452977     -2111.7816     -2414.1705      5337.649       12.357625      21.404034      20.179917    
     16000   389.06952     -2134.0302      21.6755       -2112.3547      8981.595       5289.5791      12.320416      21.339587      20.119155    
     16500   377.42203     -2135.1004      21.026605     -2114.0738     -3378.5565      5320.8421      12.344641      21.381545      20.158714    
     17000   380.57331     -2134.3058      21.202166     -2113.1037      1446.5818      5315.2368      12.340304      21.374034      20.151633    
     17500   385.61868     -2134.5159      21.48325      -2113.0326     -871.85169      5315.3123      12.340363      21.374135      20.151728    
     18000   433.91701     -2133.3342      24.174004     -2109.1602      6135.8253      5301.7723      12.329876      21.355971      20.134602    
     18500   394.56758     -2134.8651      21.981803     -2112.8833     -6544.4805      5335.0271      12.355601      21.400529      20.176612    
     19000   385.3653      -2134.8424      21.469133     -2113.3733      2030.1738      5303.6664      12.331344      21.358514      20.137       
     19500   402.45825     -2134.3941      22.421401     -2111.9727      274.74197      5312.1706      12.337931      21.369924      20.147757    
     20000   385.32912     -2133.8537      21.467118     -2112.3865      4161.2631      5303.6317      12.331317      21.358467      20.136956    
     20500   388.35671     -2135.7706      21.635788     -2114.1349      458.5159       5307.0655      12.333977      21.363076      20.141301    
     21000   407.66426     -2134.0839      22.711434     -2111.3725     -234.11403      5310.6365      12.336743      21.367866      20.145817    
     21500   386.84431     -2134.8029      21.551531     -2113.2514      768.80781      5307.3272      12.33418       21.363427      20.141632    
     22000   401.05723     -2135.029       22.343349     -2112.6857     -4027.1183      5329.3063      12.351183      21.392877      20.169398    
     22500   410.17842     -2134.8805      22.8515       -2112.029       5156.1668      5300.2318      12.328681      21.353902      20.132652    
     23000   380.10631     -2135.2151      21.176149     -2114.0389     -1906.887       5321.5132      12.34516       21.382444      20.159562    
     23500   407.17295     -2135.0801      22.684062     -2112.3961      632.77328      5311.425       12.337354      21.368924      20.146814    
     24000   392.6673      -2134.4548      21.875936     -2112.5788      1217.8185      5314.4596      12.339703      21.372992      20.150651    
     24500   412.03961     -2132.9004      22.955189     -2109.9452      5593.3633      5307.1835      12.334069      21.363234      20.14145     
     25000   420.3046      -2133.2245      23.415641     -2109.8088     -10362.311      5351.6443      12.368416      21.422725      20.197539    
     25500   401.30568     -2134.3251      22.35719      -2111.968       9991.0494      5282.4089      12.314847      21.32994       20.11006     
     26000   398.46715     -2134.7026      22.199052     -2112.5035     -5511.8734      5339.2276      12.358843      21.406144      20.181906    
     26500   396.96662     -2133.7405      22.115456     -2111.6251      1415.5512      5322.9829      12.346296      21.384412      20.161417    
     27000   395.15241     -2135.2232      22.014384     -2113.2088     -656.59192      5311.2688      12.337233      21.368714      20.146617    
     27500   395.75206     -2135.3476      22.047792     -2113.2998      4276.3298      5311.2229      12.337197      21.368653      20.146559    
     28000   414.52168     -2134.5951      23.093468     -2111.5017     -3632.3342      5340.9321      12.360158      21.408422      20.184053    
     28500   383.94562     -2136.4542      21.390041     -2115.0642     -1823.2178      5318.3904      12.342745      21.378261      20.155617    
     29000   388.22391     -2135.7137      21.62839      -2114.0853      4020.5754      5302.7488      12.330632      21.357282      20.135839    
     29500   399.62693     -2134.2258      22.263665     -2111.9622     -3217.2254      5329.4376      12.351285      21.393053      20.169563    
     30000   421.69506     -2136.7335      23.493105     -2113.2404      3495.4585      5296.1464      12.325513      21.348414      20.127478    
     30500   386.54445     -2133.6816      21.534825     -2112.1468      1654.4535      5315.9741      12.340875      21.375023      20.152565    
     31000   412.38967     -2135.0775      22.974692     -2112.1029     -343.75094      5326.0061      12.348633      21.38846       20.165233    
     31500   421.33477     -2136.1146      23.473033     -2112.6415     -1833.2734      5322.507       12.345928      21.383775      20.160816    
     32000   374.78616     -2136.4339      20.879758     -2115.5542      47.235335      5314.452       12.339697      21.372982      20.150641    
     32500   392.6435      -2134.275       21.87461      -2112.4003      6841.4314      5301.7641      12.329869      21.35596       20.134592    
     33000   407.36997     -2134.0614      22.695038     -2111.3663     -1359.0348      5333.0132      12.354046      21.397836      20.174073    
     33500   440.20487     -2134.289       24.524307     -2109.7647      2584.8401      5315.5177      12.340522      21.374411      20.151988    
     34000   392.83586     -2135.409       21.885326     -2113.5236     -1013.5184      5312.9832      12.33856       21.371013      20.148784    
     34500   408.17918     -2136.1409      22.74012      -2113.4008     -1649.9917      5314.4552      12.3397        21.372987      20.150645    
     35000   404.63981     -2135.0442      22.542938     -2112.5012     -1991.1469      5326.3649      12.34891       21.38894       20.165686    
     35500   430.58503     -2134.4276      23.988375     -2110.4392     -2400.1088      5327.0478      12.349438      21.389854      20.166548    
     36000   413.43033     -2135.8983      23.032668     -2112.8656      473.76695      5314.5558      12.339777      21.373121      20.150772    
     36500   411.25851     -2136.2212      22.911673     -2113.3095      311.79584      5313.3955      12.338879      21.371566      20.149306    
     37000   390.02445     -2134.9954      21.7287       -2113.2667     -886.6708       5321.2674      12.34497       21.382115      20.159251    
     37500   432.05118     -2134.0959      24.070056     -2110.0259     -2750.3066      5332.3303      12.353519      21.396922      20.173212    
     38000   416.57355     -2135.2624      23.20778      -2112.0546      1510.3303      5310.3385      12.336513      21.367467      20.145441    
     38500   383.48004     -2135.9836      21.364103     -2114.6195     -1836.8197      5315.4213      12.340447      21.374282      20.151866    
     39000   399.85014     -2135.0256      22.2761       -2112.7495      882.33058      5309.069       12.335529      21.365764      20.143835    
     39500   408.30571     -2133.4241      22.747169     -2110.6769      1925.1369      5312.0019      12.3378        21.369697      20.147544    
     40000   396.31715     -2134.4854      22.079273     -2112.4061      1028.9214      5312.7784      12.338402      21.370738      20.148525    
     40500   400.5701      -2136.0576      22.31621      -2113.7414      70.682723      5310.8443      12.336904      21.368145      20.14608     
     41000   417.63531     -2134.3655      23.266932     -2111.0985     -1736.1007      5320.3363      12.34425       21.380868      20.158075    
     41500   423.66657     -2134.2082      23.60294      -2110.6052      1506.7164      5310.1763      12.336387      21.367249      20.145235    
     42000   438.54822     -2137.5899      24.432014     -2113.1579     -580.21032      5307.8099      12.334554      21.364074      20.142243    
     42500   424.75576     -2135.9098      23.66362      -2112.2462     -3501.9853      5323.2094      12.346471      21.384716      20.161703    
     43000   405.03893     -2134.9658      22.565173     -2112.4006      2727.3691      5312.7939      12.338414      21.370759      20.148545    
     43500   378.85538     -2134.2095      21.106459     -2113.1031     -740.58885      5319.2052      12.343375      21.379352      20.156647    
     44000   404.15233     -2136.596       22.51578      -2114.0803      6811.3567      5285.9185      12.317573      21.334663      20.114513    
     44500   405.99122     -2137.5721      22.618226     -2114.9539      1338.0047      5312.5576      12.338231      21.370442      20.148246    
     45000   391.60894     -2133.4942      21.816974     -2111.6772      600.54758      5320.7088      12.344538      21.381367      20.158546    
     45500   438.34563     -2137.4585      24.420727     -2113.0377      273.24853      5312.1062      12.337881      21.369837      20.147676    
     46000   385.41353     -2138.0623      21.47182      -2116.5904     -2951.0037      5319.9844      12.343978      21.380396      20.157631    
     46500   384.37008     -2136.4116      21.413689     -2114.9979     -6856.6832      5331.4258      12.35282       21.395712      20.172071    
     47000   410.07497     -2137.0845      22.845737     -2114.2388      4790.5859      5295.4129      12.324944      21.347429      20.126549    
     47500   402.66086     -2136.195       22.432688     -2113.7623     -6257.0652      5339.214       12.358832      21.406126      20.181889    
     48000   373.98971     -2136.8414      20.835387     -2116.0061      9931.0036      5278.3408      12.311685      21.324463      20.104897    
     48500   394.71933     -2137.2469      21.990257     -2115.2566     -4507.0828      5325.2563      12.348054      21.387456      20.164287    
     49000   412.29574     -2137.3579      22.969459     -2114.3884      7244.1705      5292.7317      12.322863      21.343825      20.123151    
     49500   399.25024     -2136.522       22.242679     -2114.2794     -5972.8352      5326.3739      12.348917      21.388952      20.165698    
     50000   422.2458      -2137.5385      23.523787     -2114.0147      1238.4496      5314.2644      12.339552      21.372731      20.150404    
Loop time of 582.789 on 8 procs for 50000 steps with 432 atoms

Performance: 7.413 ns/day, 3.238 hours/ns, 85.794 timesteps/s, 37.063 katom-step/s
93.3% CPU use with 1 MPI tasks x 8 OpenMP threads

MPI task timing breakdown:
Section |  min time  |  avg time  |  max time  |%varavg| %total
---------------------------------------------------------------
Pair    | 534.58     | 534.58     | 534.58     |   0.0 | 91.73
Neigh   | 0.013024   | 0.013024   | 0.013024   |   0.0 |  0.00
Comm    | 0.371      | 0.371      | 0.371      |   0.0 |  0.06
Output  | 0.005837   | 0.005837   | 0.005837   |   0.0 |  0.00
Modify  | 47.747     | 47.747     | 47.747     |   0.0 |  8.19
Other   |            | 0.07387    |            |       |  0.01

Nlocal:            432 ave         432 max         432 min
Histogram: 1 0 0 0 0 0 0 0 0 0
Nghost:           2698 ave        2698 max        2698 min
Histogram: 1 0 0 0 0 0 0 0 0 0
Neighs:          37071 ave       37071 max       37071 min
Histogram: 1 0 0 0 0 0 0 0 0 0
FullNghs:        74142 ave       74142 max       74142 min
Histogram: 1 0 0 0 0 0 0 0 0 0

Total # of neighbors = 74142
Ave neighs/atom = 171.625
Neighbor list builds = 15
Dangerous builds = 0

=== FINAL RESULTS: HCP at 400 K ===
Atoms: 432 | PE/atom: -4.94643964039953 eV/atom
WARNING: Detected non-ASCII characters in input. Will try to continue by replacing with ASCII equivalents where known. (src/input.cpp:479)
Volume: 5314.26444337517 …³ | Area: 263.729921799934 ²
==========================================
HCP 400 432 -4.94643964039953 5314.26444337517 12.3395519088249 21.372730853486 20.1504038946577 263.729921799934
Simulation complete!
Total wall time: 0:13:38
