LAMMPS (10 Sep 2025)
  using 8 OpenMP thread(s) per MPI task
Loaded 1 plugins from C:\Users\harsh\Downloads\LAMMPS 64-bit 10Sep2025\plugins
using multi-threaded neighbor list subroutines
Reading data file ...
  orthogonal box = (0 0 0) to (15.018948 26.013581 24.525839)
  1 by 1 by 1 MPI processor grid
  reading atoms ...
  432 atoms
  read_data CPU = 0.002 seconds
=== STAGE 1: Energy Minimization ===
Switching to 'neigh_modify every 1 delay 0 check yes' setting during minimization
No /omp style for force computation currently active
Neighbor list info ...
  update: every = 1 steps, delay = 0 steps, check = yes
  max neighbors/atom: 4000, page size: 100000
  master list distance cutoff = 8
  ghost atom cutoff = 8
  binsize = 4, bins = 4 7 7
  2 neighbor lists, perpetual/occasional/extra = 2 0 0
  (1) pair meam, perpetual
      attributes: full, newton on, omp
      pair build: full/bin/atomonly/omp
      stencil: full/bin/3d
      bin: standard
  (2) pair meam, perpetual, half/full from (1)
      attributes: half, newton on, omp
      pair build: halffull/newton/omp
      stencil: none
      bin: none
Setting up cg style minimization ...
  Unit style    : metal
  Current step  : 0
Per MPI rank memory allocation (min/avg/max) = 19.46 | 19.46 | 19.46 Mbytes
   Step          Temp          PotEng         KinEng         TotEng         Press          Volume           Lx             Ly             Lz      
         0   0             -1621.6898      0             -1621.6898     -133169.73      9582.1626      15.018948      26.013581      24.525839    
       134   0             -1820.9838      0             -1820.9838     -92272.719      9582.1626      15.018948      26.013581      24.525839    
Loop time of 2.2143 on 8 procs for 134 steps with 432 atoms

93.9% CPU use with 1 MPI tasks x 8 OpenMP threads

Minimization stats:
  Stopping criterion = energy tolerance
  Energy initial, next-to-last, final = 
     -1621.68979319451  -1820.98342447433   -1820.9838018513
  Force two-norm initial, final = 13.109122 2.3445698
  Force max component initial, final = 1.2839495 0.80226052
  Final line search alpha, max atom move = 0.030860482 0.024758146
  Iterations, force evaluations = 134 380

MPI task timing breakdown:
Section |  min time  |  avg time  |  max time  |%varavg| %total
---------------------------------------------------------------
Pair    | 2.1059     | 2.1059     | 2.1059     |   0.0 | 95.11
Neigh   | 0.002885   | 0.002885   | 0.002885   |   0.0 |  0.13
Comm    | 0.002548   | 0.002548   | 0.002548   |   0.0 |  0.12
Output  | 0          | 0          | 0          |   0.0 |  0.00
Modify  | 0.098899   | 0.098899   | 0.098899   |   0.0 |  4.47
Other   |            | 0.00402    |            |       |  0.18

Nlocal:            432 ave         432 max         432 min
Histogram: 1 0 0 0 0 0 0 0 0 0
Nghost:           1943 ave        1943 max        1943 min
Histogram: 1 0 0 0 0 0 0 0 0 0
Neighs:          20943 ave       20943 max       20943 min
Histogram: 1 0 0 0 0 0 0 0 0 0
FullNghs:        41886 ave       41886 max       41886 min
Histogram: 1 0 0 0 0 0 0 0 0 0

Total # of neighbors = 41886
Ave neighs/atom = 96.958333
Neighbor list builds = 4
Dangerous builds = 0
Minimized PE/atom: -4.21524028206319 eV/atom
=== STAGE 2: NPT Equilibration at 200 K ===
No /omp style for force computation currently active
Setting up Verlet run ...
  Unit style    : metal
  Current step  : 0
  Time step     : 0.002
Per MPI rank memory allocation (min/avg/max) = 18.34 | 18.34 | 18.34 Mbytes
   Step          Temp          PotEng         KinEng         TotEng         Press          Volume           Lx             Ly             Lz      
         0   200           -1820.9838      11.142224     -1809.8416     -91030.702      9582.1626      15.018948      26.013581      24.525839    
       500   368.98478     -2091.9698      20.556556     -2071.4132     -1410.4876      5403.0303      12.407877      21.491073      20.261978    
      1000   181.57196     -2119.7636      10.115578     -2109.648       1032.6406      5299.7578      12.328314      21.353266      20.132052    
      1500   201.35904     -2126.6735      11.217938     -2115.4556     -1247.5096      5294.5349      12.324263      21.346249      20.125436    
      2000   215.35618     -2127.2815      11.997735     -2115.2838      2708.9571      5285.2672      12.317067      21.333787      20.113687    
      2500   208.96925     -2131.404       11.641911     -2119.7621     -521.41483      5279.8295      12.312842      21.326468      20.106787    
      3000   184.66149     -2133.6503      10.287699     -2123.3626     -745.34419      5283.7189      12.315865      21.331703      20.111723    
      3500   201.76934     -2134.7359      11.240797     -2123.4951     -3464.593       5279.374       12.312488      21.325854      20.106208    
      4000   221.26383     -2134.5029      12.326856     -2122.1761     -2955.8802      5271.0589      12.30602       21.314652      20.095647    
      4500   220.30707     -2134.2933      12.273554     -2122.0198     -2459.3644      5281.9318      12.314476      21.329298      20.109455    
      5000   205.29081     -2135.5327      11.436982     -2124.0957      27.342267      5275.8293      12.309731      21.32108       20.101707    
      5500   189.39567     -2138.1314      10.551445     -2127.58       -1266.716       5265.3284      12.301559      21.306925      20.088362    
      6000   197.96        -2138.0514      11.028574     -2127.0228      608.31156      5264.593       12.300986      21.305933      20.087427    
      6500   200.15935     -2136.7982      11.151102     -2125.6471      1479.6056      5273.3256      12.307784      21.317707      20.098527    
      7000   203.23937     -2137.1146      11.322693     -2125.7919      807.93908      5274.9492      12.309047      21.319895      20.10059     
      7500   189.67544     -2137.8917      10.567032     -2127.3246      2989.5714      5255.0097      12.293518      21.292998      20.075231    
      8000   196.12006     -2138.4941      10.926068     -2127.5681     -2200.1074      5277.3433      12.310909      21.32312       20.10363     
      8500   207.22721     -2137.8789      11.54486      -2126.334       1154.1537      5268.0851      12.303706      21.310643      20.091867    
      9000   201.17509     -2137.0063      11.20769      -2125.7986      1328.9684      5268.6265      12.304127      21.311373      20.092555    
      9500   195.07988     -2137.9207      10.868119     -2127.0526      266.0838       5263.0894      12.299815      21.303905      20.085514    
     10000   192.43879     -2139.222       10.720981     -2128.501      -829.67754      5261.4169      12.298512      21.301648      20.083386    
     10500   188.78362     -2138.6072      10.517347     -2128.0898     -3094.9155      5267.4324      12.303197      21.309763      20.091037    
     11000   208.06695     -2138.6074      11.591644     -2127.0157      6061.196       5240.9805      12.282568      21.274032      20.05735     
     11500   205.81023     -2138.2859      11.465919     -2126.82       -5246.2033      5280.8654      12.313647      21.327862      20.108101    
     12000   199.22903     -2138.5723      11.099273     -2127.4731     -3680.0654      5272.8516      12.307415      21.317068      20.097925    
     12500   202.50295     -2139.0903      11.281667     -2127.8087      3257.0088      5254.6088      12.293205      21.292456      20.07472     
     13000   201.25314     -2139.2438      11.212038     -2128.0318      2233.8807      5254.0984      12.292807      21.291767      20.07407     
     13500   192.23397     -2138.5291      10.70957      -2127.8195      1412.1629      5251.7163      12.290949      21.288548      20.071036    
     14000   197.71606     -2138.456       11.014984     -2127.4411      693.65878      5256.3109      12.294532      21.294755      20.076887    
     14500   211.92801     -2138.8133      11.806747     -2127.0065      3300.5936      5254.1822      12.292873      21.29188       20.074177    
     15000   211.91141     -2139.0078      11.805822     -2127.202      -2966.5517      5268.1361      12.303745      21.310712      20.091932    
     15500   200.15269     -2138.6555      11.150731     -2127.5048      819.47824      5259.807       12.297258      21.299475      20.081338    
     16000   203.49794     -2139.0692      11.337099     -2127.7321     -637.91147      5269.4518      12.304769      21.312486      20.093604    
     16500   207.45618     -2138.3727      11.557617     -2126.8151      2802.7858      5255.8306      12.294158      21.294106      20.076276    
     17000   209.25536     -2138.6014      11.657851     -2126.9436     -2137.4704      5269.0488      12.304456      21.311943      20.093092    
     17500   196.89202     -2139.0082      10.969076     -2128.0392      683.51865      5256.7227      12.294854      21.295311      20.077412    
     18000   185.4946      -2138.0921      10.334113     -2127.758      -2548.212       5277.1084      12.310726      21.322803      20.103332    
     18500   203.73594     -2138.4896      11.350358     -2127.1392      2661.1325      5250.8043      12.290238      21.287316      20.069874    
     19000   203.29622     -2138.0028      11.32586      -2126.6769     -537.85437      5267.0597      12.302907      21.30926       20.090563    
     19500   207.11095     -2138.953       11.538384     -2127.4146     -2755.6267      5265.8705      12.301981      21.307657      20.089051    
     20000   200.82146     -2138.8807      11.187989     -2127.6927     -4851.8671      5276.5212      12.31027       21.322012      20.102586    
Loop time of 238.316 on 8 procs for 20000 steps with 432 atoms

Performance: 14.502 ns/day, 1.655 hours/ns, 83.922 timesteps/s, 36.254 katom-step/s
93.6% CPU use with 1 MPI tasks x 8 OpenMP threads

MPI task timing breakdown:
Section |  min time  |  avg time  |  max time  |%varavg| %total
---------------------------------------------------------------
Pair    | 219.71     | 219.71     | 219.71     |   0.0 | 92.19
Neigh   | 0.014698   | 0.014698   | 0.014698   |   0.0 |  0.01
Comm    | 0.14902    | 0.14902    | 0.14902    |   0.0 |  0.06
Output  | 0.002518   | 0.002518   | 0.002518   |   0.0 |  0.00
Modify  | 18.413     | 18.413     | 18.413     |   0.0 |  7.73
Other   |            | 0.02845    |            |       |  0.01

Nlocal:            432 ave         432 max         432 min
Histogram: 1 0 0 0 0 0 0 0 0 0
Nghost:           2674 ave        2674 max        2674 min
Histogram: 1 0 0 0 0 0 0 0 0 0
Neighs:          37489 ave       37489 max       37489 min
Histogram: 1 0 0 0 0 0 0 0 0 0
FullNghs:        74978 ave       74978 max       74978 min
Histogram: 1 0 0 0 0 0 0 0 0 0

Total # of neighbors = 74978
Ave neighs/atom = 173.56019
Neighbor list builds = 16
Dangerous builds = 0
=== STAGE 3: NPT Production at 200 K ===
No /omp style for force computation currently active
Setting up Verlet run ...
  Unit style    : metal
  Current step  : 0
  Time step     : 0.001
Per MPI rank memory allocation (min/avg/max) = 18.91 | 18.91 | 18.91 Mbytes
   Step          Temp          PotEng         KinEng         TotEng         Press          Volume           Lx             Ly             Lz      
         0   200.82146     -2138.8807      11.187989     -2127.6927     -4851.8671      5276.5212      12.31027       21.322012      20.102586    
       500   193.26172     -2138.6969      10.766827     -2127.9301      3289.6353      5252.2798      12.291389      21.28931       20.071754    
      1000   188.82966     -2139.1331      10.519912     -2128.6132     -1819.6859      5265.7225      12.301866      21.307457      20.088863    
      1500   191.4347      -2138.5894      10.665042     -2127.9244     -205.8902       5257.1191      12.295163      21.295846      20.077916    
      2000   201.15397     -2138.5879      11.206513     -2127.3814      2780.5309      5258.0719      12.295905      21.297133      20.079129    
      2500   195.47459     -2139.3721      10.890109     -2128.482      -2731.8296      5266.8994      12.302782      21.309044      20.09036     
      3000   193.15024     -2139.208       10.760617     -2128.4473      2277.7078      5253.6109      12.292427      21.291108      20.073449    
      3500   195.82283     -2138.5244      10.90951      -2127.6149     -2642.1392      5270.6277      12.305685      21.314071      20.095099    
      4000   206.78967     -2139.2577      11.520485     -2127.7372     -2912.9332      5266.4551      12.302436      21.308445      20.089795    
      4500   194.6856      -2138.8091      10.846154     -2127.963       4554.2129      5245.0368      12.285736      21.279519      20.062523    
      5000   202.99029     -2139.5431      11.308817     -2128.2342     -1212.3688      5263.1399      12.299854      21.303973      20.085578    
      5500   206.04494     -2138.811       11.478995     -2127.332      -1699.7336      5269.0217      12.304435      21.311906      20.093058    
      6000   196.11517     -2137.8364      10.925796     -2126.9106     -477.51676      5265.7629      12.301897      21.307511      20.088914    
      6500   207.95211     -2138.4668      11.585246     -2126.8816      2512.7966      5255.165       12.293639      21.293207      20.075428    
      7000   211.91099     -2138.9869      11.805799     -2127.1811     -2198.1963      5271.2304      12.306154      21.314883      20.095865    
      7500   202.61242     -2138.8722      11.287765     -2127.5845      36.387734      5259.6798      12.297159      21.299303      20.081176    
      8000   186.66554     -2139.4068      10.399347     -2129.0075      4723.2455      5243.7998      12.28477       21.277846      20.060946    
      8500   207.72136     -2138.4419      11.57239      -2126.8695      1707.3824      5253.7044      12.2925        21.291234      20.073568    
      9000   204.58377     -2138.7289      11.397591     -2127.3314      1439.2801      5256.2056      12.29445       21.294613      20.076753    
      9500   194.34424     -2138.7287      10.827136     -2127.9015      1843.4729      5253.1212      12.292045      21.290447      20.072826    
     10000   195.82815     -2138.8035      10.909806     -2127.8937     -6753.5703      5284.9998      12.31686       21.333427      20.113348    
     10500   194.92919     -2138.5136      10.859724     -2127.6539      681.02902      5259.7693      12.297228      21.299424      20.08129     
     11000   198.6572      -2138.3158      11.067416     -2127.2484      2420.3563      5257.3774      12.295364      21.296195      20.078245    
     11500   193.63572     -2138.8901      10.787663     -2128.1024     -4220.8115      5274.1933      12.308459      21.318876      20.099629    
     12000   207.41759     -2139.3802      11.555467     -2127.8248      667.63791      5252.8378      12.291824      21.290064      20.072465    
     12500   191.22235     -2137.8937      10.653212     -2127.2405      3730.5737      5253.0649      12.292001      21.29037       20.072754    
     13000   187.56481     -2139.0484      10.449446     -2128.599      -1530.7155      5264.0709      12.30058       21.305229      20.086763    
     13500   193.9773      -2139.4058      10.806693     -2128.5991     -125.51117      5262.0882      12.299035      21.302554      20.08424     
     14000   201.10837     -2138.3432      11.203973     -2127.1392      1997.3273      5257.0334      12.295096      21.29573       20.077807    
     14500   206.66803     -2138.8214      11.513708     -2127.3076     -1811.6293      5265.8822      12.30199       21.307672      20.089066    
     15000   201.35223     -2139.1097      11.217559     -2127.8922     -3476.356       5269.8085      12.305047      21.312967      20.094058    
     15500   220.40974     -2138.8081      12.279274     -2126.5289     -731.10798      5262.0078      12.298973      21.302445      20.084138    
     16000   205.66493     -2139.0813      11.457824     -2127.6235      2987.4228      5247.7802      12.287878      21.283229      20.06602     
     16500   200.43195     -2139.2501      11.166289     -2128.0838      785.45594      5258.4746      12.296219      21.297676      20.079642    
     17000   202.83003     -2138.6138      11.299888     -2127.314      -2479.0047      5271.9977      12.306751      21.315918      20.09684     
     17500   195.87333     -2137.874       10.912323     -2126.9617     -95.109823      5264.3923      12.30083       21.305663      20.087171    
     18000   215.77294     -2138.9231      12.020953     -2126.9021     -789.66651      5263.805       12.300373      21.30487       20.086424    
     18500   192.79711     -2138.2398      10.740944     -2127.4988     -6777.8796      5279.7097      12.312749      21.326306      20.106634    
     19000   196.66059     -2138.6383      10.956182     -2127.6821      6352.7611      5241.5563      12.283018      21.274811      20.058084    
     19500   191.26295     -2138.4405      10.655474     -2127.785      -2282.8573      5269.2789      12.304635      21.312253      20.093385    
     20000   186.61364     -2138.9878      10.396455     -2128.5913     -858.82223      5265.7607      12.301896      21.307508      20.088912    
     20500   187.73191     -2138.8761      10.458756     -2128.4174      443.52957      5256.3046      12.294528      21.294746      20.076879    
     21000   204.55807     -2137.7914      11.39616      -2126.3953     -1354.5221      5270.0311      12.30522       21.313267      20.094341    
     21500   213.98293     -2138.8254      11.921229     -2126.9042     -255.4925       5258.7788      12.296456      21.298087      20.080029    
     22000   205.76131     -2138.897       11.463194     -2127.4338      1814.4532      5252.0365      12.291199      21.288981      20.071444    
     22500   196.32312     -2139.7731      10.937381     -2128.8357     -6344.5595      5274.0247      12.308328      21.318649      20.099415    
     23000   188.4082      -2138.8168      10.496432     -2128.3204      2383.9974      5253.277       12.292167      21.290657      20.073024    
     23500   199.68038     -2138.7883      11.124418     -2127.6638      671.39774      5254.7948      12.29335       21.292707      20.074957    
     24000   198.47918     -2138.6584      11.057498     -2127.6009      1247.8897      5255.3366      12.293773      21.293439      20.075647    
     24500   185.95552     -2137.9593      10.359791     -2127.5995     -454.10415      5262.8478      12.299627      21.303579      20.085207    
     25000   198.85067     -2138.8919      11.078194     -2127.8137      3250.2501      5253.1644      12.292079      21.290505      20.07288     
     25500   200.81475     -2139.1154      11.187615     -2127.9277     -4658.214       5271.4015      12.306287      21.315114      20.096082    
     26000   199.65318     -2138.5649      11.122903     -2127.442       885.155        5264.2389      12.300711      21.305456      20.086976    
     26500   198.23494     -2138.9673      11.043891     -2127.9234      1497.609       5256.7853      12.294902      21.295396      20.077491    
     27000   182.86308     -2138.7067      10.187507     -2128.5191     -1084.8234      5264.5357      12.300942      21.305856      20.087354    
     27500   191.60392     -2138.8629      10.674469     -2128.1884      1798.9354      5258.1539      12.295969      21.297243      20.079234    
     28000   202.80658     -2139.1705      11.298582     -2127.8719      4511.9959      5246.5718      12.286934      21.281595      20.06448     
     28500   220.15995     -2138.4272      12.265358     -2126.1619     -4037.9443      5272.0272      12.306774      21.315957      20.096877    
     29000   193.84401     -2138.6903      10.799267     -2127.891      -68.546215      5265.4929      12.301687      21.307147      20.088571    
     29500   194.67106     -2139.1144      10.845343     -2128.2691      4321.567       5252.6395      12.291669      21.289796      20.072212    
     30000   206.50083     -2139.0227      11.504393     -2127.5184      1296.5348      5256.7055      12.29484       21.295288      20.07739     
     30500   211.0784      -2139.037       11.759414     -2127.2776     -3100.2453      5268.1625      12.303766      21.310748      20.091965    
     31000   196.15305     -2139.1034      10.927906     -2128.1755      3063.5532      5241.0426      12.282617      21.274116      20.057429    
     31500   190.84018     -2139.0817      10.63192      -2128.4498     -5114.6135      5268.4549      12.303993      21.311142      20.092337    
     32000   199.76718     -2138.5144      11.129254     -2127.3851     -2244.5279      5269.6106      12.304893      21.3127        20.093806    
     32500   192.57971     -2138.3618      10.728832     -2127.633       5536.9114      5238.0767      12.280299      21.270102      20.053645    
     33000   185.9343      -2139.021       10.358608     -2128.6624     -2848.7803      5266.67        12.302604      21.308735      20.090068    
     33500   195.22286     -2138.8493      10.876085     -2127.9732     -702.96375      5261.1796      12.298327      21.301328      20.083084    
     34000   196.89418     -2138.2468      10.969196     -2127.2776      3145.8129      5246.2501      12.286683      21.28116       20.06407     
     34500   210.29666     -2138.4127      11.715863     -2126.6969     -3549.6671      5277.8696      12.311318      21.323829      20.104298    
     35000   196.64582     -2138.6466      10.955359     -2127.6912      6556.3564      5239.4406      12.281365      21.271948      20.055385    
     35500   211.46053     -2139.113       11.780704     -2127.3323     -3478.3955      5270.1898      12.305344      21.313481      20.094542    
     36000   210.22606     -2138.7634      11.71193      -2127.0515      4344.8939      5253.0043      12.291954      21.290289      20.072677    
     36500   199.27037     -2139.0838      11.101576     -2127.9822      5900.7894      5243.6775      12.284675      21.277681      20.06079     
     37000   189.70229     -2139.799       10.568527     -2129.2305     -5772.9587      5275.9412      12.309819      21.321231      20.10185     
     37500   197.50907     -2138.8318      11.003452     -2127.8283      1086.8667      5254.5278      12.293142      21.292347      20.074617    
     38000   206.66968     -2138.9829      11.5138       -2127.4691      3596.5967      5250.2452      12.289801      21.28656       20.069162    
     38500   206.74723     -2138.2598      11.51812      -2126.7416     -1820.2754      5272.8584      12.30742       21.317078      20.097933    
     39000   193.79398     -2138.543       10.79648      -2127.7465      1756.061       5259.8396      12.297283      21.299519      20.081379    
     39500   199.87406     -2139.132       11.135208     -2127.9968     -2400.448       5270.3076      12.305436      21.31364       20.094692    
     40000   203.02006     -2138.321       11.310475     -2127.0106      154.03834      5266.7942      12.3027        21.308902      20.090226    
     40500   207.83808     -2138.0927      11.578893     -2126.5138      4414.8854      5256.1308      12.294392      21.294512      20.076658    
     41000   208.51352     -2139.0202      11.616522     -2127.4037      2776.7876      5248.487       12.288429      21.284184      20.066921    
     41500   201.66976     -2139.1118      11.235249     -2127.8766     -4472.3648      5274.4653      12.308671      21.319243      20.099975    
     42000   210.87634     -2138.6833      11.748158     -2126.9351      1290.8746      5259.8304      12.297276      21.299507      20.081367    
     42500   197.27478     -2140.0685      10.990399     -2129.0781      1008.4697      5253.5869      12.292408      21.291076      20.073419    
     43000   189.19203     -2138.8452      10.5401       -2128.3051     -4909.4056      5276.5285      12.310275      21.322022      20.102595    
     43500   190.64313     -2138.3982      10.620943     -2127.7772     -2920.3343      5273.8838      12.308218      21.318459      20.099236    
     44000   204.87259     -2138.4525      11.413682     -2127.0389      5883.6216      5245.9226      12.286428      21.280717      20.063652    
     44500   204.97497     -2138.7757      11.419386     -2127.3563     -3700.6396      5269.4176      12.304743      21.31244       20.093561    
     45000   197.54006     -2138.8564      11.005178     -2127.8512     -1320.4375      5263.2844      12.299967      21.304168      20.085762    
     45500   206.10388     -2138.6896      11.482278     -2127.2073      3.3142336      5261.1309      12.298289      21.301262      20.083022    
     46000   207.46425     -2138.5457      11.558066     -2126.9876      4537.9063      5249.5608      12.289267      21.285635      20.06829     
     46500   194.78751     -2138.4209      10.851831     -2127.5691     -2141.0423      5263.8732      12.300426      21.304962      20.086511    
     47000   183.12102     -2138.9111      10.201878     -2128.7092      2585.6492      5246.7487      12.287073      21.281834      20.064706    
     47500   203.54806     -2139.1538      11.339891     -2127.8139      1200.9344      5257.7155      12.295627      21.296651      20.078676    
     48000   197.70272     -2138.2091      11.01424      -2127.1949     -2916.0718      5273.8993      12.30823       21.31848       20.099256    
     48500   198.54422     -2138.7259      11.061121     -2127.6648      1558.9815      5250.6514      12.290118      21.287109      20.069679    
     49000   184.05264     -2139.457       10.253779     -2129.2032      3801.4847      5246.2177      12.286658      21.281116      20.064029    
     49500   200.38351     -2138.9089      11.16359      -2127.7453     -482.59314      5259.9769      12.29739       21.299704      20.081554    
     50000   203.86021     -2138.722       11.357281     -2127.3647     -2764.2386      5268.7827      12.304249      21.311584      20.092754    
Loop time of 591.613 on 8 procs for 50000 steps with 432 atoms

Performance: 7.302 ns/day, 3.287 hours/ns, 84.515 timesteps/s, 36.510 katom-step/s
93.7% CPU use with 1 MPI tasks x 8 OpenMP threads

MPI task timing breakdown:
Section |  min time  |  avg time  |  max time  |%varavg| %total
---------------------------------------------------------------
Pair    | 545.68     | 545.68     | 545.68     |   0.0 | 92.24
Neigh   | 0          | 0          | 0          |   0.0 |  0.00
Comm    | 0.36487    | 0.36487    | 0.36487    |   0.0 |  0.06
Output  | 0.005634   | 0.005634   | 0.005634   |   0.0 |  0.00
Modify  | 45.496     | 45.496     | 45.496     |   0.0 |  7.69
Other   |            | 0.06665    |            |       |  0.01

Nlocal:            432 ave         432 max         432 min
Histogram: 1 0 0 0 0 0 0 0 0 0
Nghost:           2663 ave        2663 max        2663 min
Histogram: 1 0 0 0 0 0 0 0 0 0
Neighs:          37381 ave       37381 max       37381 min
Histogram: 1 0 0 0 0 0 0 0 0 0
FullNghs:        74762 ave       74762 max       74762 min
Histogram: 1 0 0 0 0 0 0 0 0 0

Total # of neighbors = 74762
Ave neighs/atom = 173.06019
Neighbor list builds = 0
Dangerous builds = 0

=== FINAL RESULTS: HCP at 200 K ===
Atoms: 432 | PE/atom: -4.95130429497774 eV/atom
WARNING: Detected non-ASCII characters in input. Will try to continue by replacing with ASCII equivalents where known. (src/input.cpp:479)
Volume: 5268.78267653376 …³ | Area: 262.223024286698 ²
==========================================
HCP 200 432 -4.95130429497774 5268.78267653376 12.3042486006201 21.3115837299876 20.0927538337488 262.223024286698
Simulation complete!
Total wall time: 0:13:52
