LAMMPS (10 Sep 2025)
  using 8 OpenMP thread(s) per MPI task
Loaded 1 plugins from C:\Users\harsh\Downloads\LAMMPS 64-bit 10Sep2025\plugins
using multi-threaded neighbor list subroutines
Reading data file ...
  orthogonal box = (0 0 0) to (21.24 21.24 21.24)
  1 by 1 by 1 MPI processor grid
  reading atoms ...
  864 atoms
  read_data CPU = 0.018 seconds
=== STAGE 1: Energy Minimization ===
Switching to 'neigh_modify every 1 delay 0 check yes' setting during minimization
No /omp style for force computation currently active
Neighbor list info ...
  update: every = 1 steps, delay = 0 steps, check = yes
  max neighbors/atom: 4000, page size: 100000
  master list distance cutoff = 8
  ghost atom cutoff = 8
  binsize = 4, bins = 6 6 6
  2 neighbor lists, perpetual/occasional/extra = 2 0 0
  (1) pair meam, perpetual
      attributes: full, newton on, omp
      pair build: full/bin/atomonly/omp
      stencil: full/bin/3d
      bin: standard
  (2) pair meam, perpetual, half/full from (1)
      attributes: half, newton on, omp
      pair build: halffull/newton/omp
      stencil: none
      bin: none
Setting up cg style minimization ...
  Unit style    : metal
  Current step  : 0
Per MPI rank memory allocation (min/avg/max) = 21.5 | 21.5 | 21.5 Mbytes
   Step          Temp          PotEng         KinEng         TotEng         Press          Volume           Lx             Ly             Lz      
         0   0             -4181.7712      0             -4181.7712      48552.456      9582.1626      21.24          21.24          21.24        
       134   0             -4220.6238      0             -4220.6238      120794.25      9582.1626      21.24          21.24          21.24        
Loop time of 11.2605 on 8 procs for 134 steps with 864 atoms

95.7% CPU use with 1 MPI tasks x 8 OpenMP threads

Minimization stats:
  Stopping criterion = energy tolerance
  Energy initial, next-to-last, final = 
     -4181.77121072556  -4220.61965220413  -4220.62379468317
  Force two-norm initial, final = 17.889735 0.26549897
  Force max component initial, final = 1.1431873 0.029034809
  Final line search alpha, max atom move = 1 0.029034809
  Iterations, force evaluations = 134 268

MPI task timing breakdown:
Section |  min time  |  avg time  |  max time  |%varavg| %total
---------------------------------------------------------------
Pair    | 11.178     | 11.178     | 11.178     |   0.0 | 99.27
Neigh   | 0          | 0          | 0          |   0.0 |  0.00
Comm    | 0.007586   | 0.007586   | 0.007586   |   0.0 |  0.07
Output  | 0          | 0          | 0          |   0.0 |  0.00
Modify  | 0.068334   | 0.068334   | 0.068334   |   0.0 |  0.61
Other   |            | 0.006611   |            |       |  0.06

Nlocal:            864 ave         864 max         864 min
Histogram: 1 0 0 0 0 0 0 0 0 0
Nghost:           3767 ave        3767 max        3767 min
Histogram: 1 0 0 0 0 0 0 0 0 0
Neighs:          86400 ave       86400 max       86400 min
Histogram: 1 0 0 0 0 0 0 0 0 0
FullNghs:       172800 ave      172800 max      172800 min
Histogram: 1 0 0 0 0 0 0 0 0 0

Total # of neighbors = 172800
Ave neighs/atom = 200
Neighbor list builds = 0
Dangerous builds = 0
Minimized PE/atom: -4.88498124384626 eV/atom
=== STAGE 2: NPT Equilibration at 400 K ===
No /omp style for force computation currently active
Setting up Verlet run ...
  Unit style    : metal
  Current step  : 0
  Time step     : 0.002
Per MPI rank memory allocation (min/avg/max) = 20.37 | 20.37 | 20.37 Mbytes
   Step          Temp          PotEng         KinEng         TotEng         Press          Volume           Lx             Ly             Lz      
         0   400           -4220.6238      44.620602     -4176.0032      125768.08      9582.1626      21.24          21.24          21.24        
       500   386.26034     -4205.7231      43.087923     -4162.6352     -485.89249      10575.933      21.950255      21.950255      21.950255    
      1000   392.4401      -4207.6327      43.777284     -4163.8554      638.78183      10584.275      21.956024      21.956024      21.956024    
      1500   408.24677     -4206.3676      45.540542     -4160.8271     -88.532802      10593.283      21.962251      21.962251      21.962251    
      2000   416.0746      -4211.299       46.413748     -4164.8853      3488.2093      10595.901      21.964061      21.964061      21.964061    
      2500   411.48688     -4213.8362      45.90198      -4167.9342     -878.08456      10631.283      21.988481      21.988481      21.988481    
      3000   389.14724     -4216.3691      43.40996      -4172.9592     -1785.1226      10599.646      21.966648      21.966648      21.966648    
      3500   397.50624     -4218.296       44.342419     -4173.9535      16.74286       10603.063      21.969008      21.969008      21.969008    
      4000   406.41129     -4218.0597      45.335791     -4172.7239      796.24414      10614.905      21.977184      21.977184      21.977184    
      4500   407.51844     -4217.4531      45.459296     -4171.9938     -1815.7929      10657.888      22.006808      22.006808      22.006808    
      5000   392.7952      -4223.6077      43.816896     -4179.7908      587.52555      10625.765      21.984676      21.984676      21.984676    
      5500   405.48686     -4224.7466      45.232669     -4179.5139      2428.3821      10610.479      21.974129      21.974129      21.974129    
      6000   418.56379     -4224.7883      46.691421     -4178.0969     -366.36457      10642.502      21.996213      21.996213      21.996213    
      6500   412.88062     -4227.2644      46.057454     -4181.207      -5632.5053      10658.071      22.006934      22.006934      22.006934    
      7000   382.0626      -4229.465       42.619658     -4186.8454      4259.018       10601.921      21.968219      21.968219      21.968219    
      7500   415.87163     -4230.8235      46.391107     -4184.4324      45.808276      10629.837      21.987484      21.987484      21.987484    
      8000   430.37906     -4231.8035      48.009432     -4183.794       2976.2644      10608.481      21.972749      21.972749      21.972749    
      8500   380.12659     -4233.0434      42.403694     -4190.6397     -3470.3608      10649.598      22.0011        22.0011        22.0011      
      9000   420.54781     -4235.9035      46.912741     -4188.9908      1706.211       10605.602      21.970762      21.970762      21.970762    
      9500   425.11235     -4234.6884      47.421923     -4187.2665     -2464.5389      10640.265      21.994672      21.994672      21.994672    
     10000   399.46679     -4237.5674      44.561122     -4193.0063     -3037.7345      10645.791      21.998478      21.998478      21.998478    
     10500   411.7451      -4239.2336      45.930786     -4193.3028     -2052.7345      10642.028      21.995887      21.995887      21.995887    
     11000   416.04712     -4236.0367      46.410682     -4189.6261     -3005.5365      10664.706      22.011499      22.011499      22.011499    
     11500   389.1708      -4241.5887      43.412589     -4198.1762     -1876.3415      10644.968      21.997912      21.997912      21.997912    
     12000   399.92914     -4242.2967      44.612697     -4197.684      -1585.1801      10653.656      22.003895      22.003895      22.003895    
     12500   408.40952     -4242.0603      45.558696     -4196.5016      1062.0617      10633.26       21.989844      21.989844      21.989844    
     13000   416.1169      -4243.4764      46.418467     -4197.058       674.46118      10633.17       21.989782      21.989782      21.989782    
     13500   399.82137     -4244.4817      44.600675     -4199.881      -5640.278       10676.233      22.019427      22.019427      22.019427    
     14000   396.39305     -4247.3062      44.218241     -4203.0879     -2076.9618      10630.874      21.988199      21.988199      21.988199    
     14500   397.54039     -4248.9982      44.346229     -4204.6519     -1470.2479      10631.339      21.98852       21.98852       21.98852     
     15000   401.86875     -4250.7281      44.829064     -4205.8991      3056.6276      10584.453      21.956147      21.956147      21.956147    
     15500   376.97762     -4249.0203      42.05242      -4206.9678     -1.7937325      10613.763      21.976395      21.976395      21.976395    
     16000   405.98937     -4247.4513      45.288725     -4202.1625     -1768.9924      10634.182      21.990479      21.990479      21.990479    
     16500   401.20325     -4248.3974      44.754827     -4203.6426      3375.923       10612.778      21.975715      21.975715      21.975715    
     17000   406.10178     -4250.035       45.301265     -4204.7337     -2663.0894      10650.479      22.001707      22.001707      22.001707    
     17500   416.24596     -4249.5747      46.432864     -4203.1418      777.02204      10604.654      21.970107      21.970107      21.970107    
     18000   362.16971     -4252.327       40.400576     -4211.9265     -1862.1185      10610.394      21.97407       21.97407       21.97407     
     18500   408.6181      -4250.2446      45.581964     -4204.6626      617.514        10621.937      21.982035      21.982035      21.982035    
     19000   406.16794     -4250.1102      45.308646     -4204.8015      764.61467      10615.099      21.977318      21.977318      21.977318    
     19500   426.38046     -4250.3201      47.563382     -4202.7567     -119.18254      10651.725      22.002565      22.002565      22.002565    
     20000   395.70106     -4250.3808      44.141049     -4206.2398     -1333.5935      10660.408      22.008542      22.008542      22.008542    
Loop time of 556.536 on 8 procs for 20000 steps with 864 atoms

Performance: 6.210 ns/day, 3.865 hours/ns, 35.937 timesteps/s, 31.049 katom-step/s
93.3% CPU use with 1 MPI tasks x 8 OpenMP threads

MPI task timing breakdown:
Section |  min time  |  avg time  |  max time  |%varavg| %total
---------------------------------------------------------------
Pair    | 527.68     | 527.68     | 527.68     |   0.0 | 94.82
Neigh   | 0.056008   | 0.056008   | 0.056008   |   0.0 |  0.01
Comm    | 0.30324    | 0.30324    | 0.30324    |   0.0 |  0.05
Output  | 0.002861   | 0.002861   | 0.002861   |   0.0 |  0.00
Modify  | 28.424     | 28.424     | 28.424     |   0.0 |  5.11
Other   |            | 0.06539    |            |       |  0.01

Nlocal:            864 ave         864 max         864 min
Histogram: 1 0 0 0 0 0 0 0 0 0
Nghost:           3596 ave        3596 max        3596 min
Histogram: 1 0 0 0 0 0 0 0 0 0
Neighs:          74376 ave       74376 max       74376 min
Histogram: 1 0 0 0 0 0 0 0 0 0
FullNghs:       148752 ave      148752 max      148752 min
Histogram: 1 0 0 0 0 0 0 0 0 0

Total # of neighbors = 148752
Ave neighs/atom = 172.16667
Neighbor list builds = 32
Dangerous builds = 0
=== STAGE 3: NPT Production at 400 K ===
No /omp style for force computation currently active
Setting up Verlet run ...
  Unit style    : metal
  Current step  : 0
  Time step     : 0.001
Per MPI rank memory allocation (min/avg/max) = 20.37 | 20.37 | 20.37 Mbytes
   Step          Temp          PotEng         KinEng         TotEng         Press          Volume           Lx             Ly             Lz      
         0   395.70106     -4250.3808      44.141049     -4206.2398     -1333.5935      10660.408      22.008542      22.008542      22.008542    
       500   405.73876     -4250.7558      45.260769     -4205.4951      1998.3562      10628.081      21.986273      21.986273      21.986273    
      1000   392.33513     -4251.352       43.765574     -4207.5864     -4836.8714      10668.987      22.014445      22.014445      22.014445    
      1500   399.2696      -4251.9478      44.539125     -4207.4087      2749.698       10606.862      21.971631      21.971631      21.971631    
      2000   399.19976     -4250.5961      44.531334     -4206.0647      3821.0316      10612.291      21.975379      21.975379      21.975379    
      2500   406.60112     -4253.5146      45.356967     -4208.1576     -972.58002      10645.199      21.998071      21.998071      21.998071    
      3000   412.10789     -4252.5823      45.971256     -4206.611       3674.3505      10615.868      21.977848      21.977848      21.977848    
      3500   403.04414     -4251.5161      44.96018      -4206.5559     -2635.3063      10656.609      22.005927      22.005927      22.005927    
      4000   387.00402     -4251.7765      43.17088      -4208.6057      178.90029      10618.058      21.979359      21.979359      21.979359    
      4500   410.59251     -4253.1014      45.802213     -4207.2992      3262.3679      10598.07       21.965559      21.965559      21.965559    
      5000   404.04733     -4255.5009      45.072087     -4210.4288     -2703.8703      10632.478      21.989305      21.989305      21.989305    
      5500   422.86248     -4254.4887      47.170946     -4207.3177     -1366.817       10644.603      21.99766       21.99766       21.99766     
      6000   420.5274      -4254.8577      46.910465     -4207.9472      2515.8129      10615.319      21.97747       21.97747       21.97747     
      6500   379.88422     -4255.1297      42.376657     -4212.753       802.20044      10631.001      21.988286      21.988286      21.988286    
      7000   394.73581     -4256.3477      44.033374     -4212.3143      2567.0965      10623.638      21.983209      21.983209      21.983209    
      7500   418.57992     -4255.6014      46.69322      -4208.9082     -964.95933      10636.158      21.991842      21.991842      21.991842    
      8000   410.50391     -4256.5099      45.792329     -4210.7175     -736.38154      10627.61       21.985948      21.985948      21.985948    
      8500   400.6768      -4258.538       44.696101     -4213.8419      1661.0893      10610.181      21.973923      21.973923      21.973923    
      9000   388.68391     -4257.9181      43.358275     -4214.5598      3191.5559      10616.899      21.97856       21.97856       21.97856     
      9500   380.4614      -4255.9721      42.441041     -4213.531       298.94867      10637.431      21.992719      21.992719      21.992719    
     10000   385.84754     -4257.8926      43.041874     -4214.8507      3688.2164      10619.215      21.980158      21.980158      21.980158    
     10500   397.65772     -4256.6409      44.359317     -4212.2815     -8584.471       10705.575      22.039581      22.039581      22.039581    
     11000   404.14476     -4260.4139      45.082956     -4215.331       9056.4812      10559.225      21.93869       21.93869       21.93869     
     11500   423.00106     -4258.1611      47.186404     -4210.9747     -4749.7629      10656.019      22.005522      22.005522      22.005522    
     12000   396.93707     -4257.5842      44.278928     -4213.3052     -2364.7448      10638          21.993111      21.993111      21.993111    
     12500   397.47213     -4257.7392      44.338614     -4213.4006      1581.3983      10619.695      21.980489      21.980489      21.980489    
     13000   400.90726     -4259.9338      44.721808     -4215.212      -107.42163      10634.489      21.990691      21.990691      21.990691    
     13500   393.78858     -4259.9893      43.927709     -4216.0616     -146.07431      10627.476      21.985856      21.985856      21.985856    
     14000   404.05088     -4258.6755      45.072484     -4213.603       2857.3259      10615.323      21.977472      21.977472      21.977472    
     14500   409.15727     -4258.5626      45.642109     -4212.9205      598.38035      10619.438      21.980312      21.980312      21.980312    
     15000   395.12715     -4260.6213      44.077029     -4216.5442     -1055.56        10622.264      21.982261      21.982261      21.982261    
     15500   388.39167     -4258.5692      43.325676     -4215.2435      2767.4485      10608.674      21.972883      21.972883      21.972883    
     16000   407.87143     -4258.0796      45.498672     -4212.581      -227.85483      10634.883      21.990962      21.990962      21.990962    
     16500   412.32862     -4258.6202      45.995878     -4212.6244     -51.19864       10634.891      21.990968      21.990968      21.990968    
     17000   408.89971     -4260.7068      45.613378     -4215.0934     -6003.8531      10649.336      22.00092       22.00092       22.00092     
     17500   404.06396     -4260.9418      45.073942     -4215.8679      2490.2203      10611.142      21.974586      21.974586      21.974586    
     18000   414.83984     -4258.2286      46.276008     -4211.9526      871.65959      10634.28       21.990547      21.990547      21.990547    
     18500   398.77224     -4260.9919      44.483643     -4216.5082     -483.60924      10622.138      21.982174      21.982174      21.982174    
     19000   406.03439     -4260.4437      45.293747     -4215.15        1120.2164      10618.772      21.979852      21.979852      21.979852    
     19500   396.94439     -4258.6049      44.279744     -4214.3252      570.04511      10631.332      21.988515      21.988515      21.988515    
     20000   390.58607     -4259.4191      43.570463     -4215.8487     -343.68062      10637.968      21.993088      21.993088      21.993088    
     20500   406.06166     -4260.2164      45.29679      -4214.9196     -521.31881      10637.901      21.993043      21.993043      21.993043    
     21000   381.99696     -4260.9034      42.612336     -4218.291       764.42887      10617.349      21.97887       21.97887       21.97887     
     21500   403.06964     -4259.5324      44.963025     -4214.5694      1986.5613      10626.489      21.985175      21.985175      21.985175    
     22000   403.90829     -4258.6088      45.056577     -4213.5522     -3035.6278      10663.966      22.010991      22.010991      22.010991    
     22500   402.26919     -4260.0982      44.873733     -4215.2245      3156.846       10614.108      21.976633      21.976633      21.976633    
     23000   399.7872      -4259.53        44.596864     -4214.9331      2466.9085      10622.308      21.982292      21.982292      21.982292    
     23500   404.98612     -4258.512       45.176811     -4213.3352     -7226.0785      10694.304      22.031844      22.031844      22.031844    
     24000   389.60322     -4261.6808      43.460826     -4218.22        3138.5013      10593.816      21.96262       21.96262       21.96262     
     24500   402.36621     -4261.7883      44.884556     -4216.9037     -1694.841       10643.072      21.996605      21.996605      21.996605    
     25000   404.99638     -4259.8764      45.177956     -4214.6984     -288.36776      10632.572      21.989369      21.989369      21.989369    
     25500   399.86971     -4260.7922      44.606068     -4216.1861      23.838235      10620.375      21.980958      21.980958      21.980958    
     26000   381.02676     -4260.4952      42.504109     -4217.9911      736.10619      10615.438      21.977552      21.977552      21.977552    
     26500   401.66792     -4259.0379      44.806661     -4214.2312      2138.0817      10608.246      21.972587      21.972587      21.972587    
     27000   396.91836     -4262.1055      44.276841     -4217.8287     -110.35886      10624.467      21.983781      21.983781      21.983781    
     27500   394.80879     -4259.9868      44.041515     -4215.9453      2830.1798      10618.489      21.979657      21.979657      21.979657    
     28000   375.55738     -4260.0186      41.893991     -4218.1246     -5639.8181      10662.43       22.009934      22.009934      22.009934    
     28500   396.47982     -4262.2496      44.22792      -4218.0217     -987.16384      10617.729      21.979133      21.979133      21.979133    
     29000   397.5846      -4261.9534      44.351161     -4217.6023      499.3831       10620.477      21.981028      21.981028      21.981028    
     29500   395.20977     -4258.4463      44.086245     -4214.36        1157.022       10608.818      21.972982      21.972982      21.972982    
     30000   404.95968     -4260.8909      45.173862     -4215.717       675.47271      10612.574      21.975575      21.975575      21.975575    
     30500   393.57531     -4261.2652      43.903918     -4217.3613     -2393.0822      10648.225      22.000155      22.000155      22.000155    
     31000   404.23967     -4259.0637      45.093544     -4213.9701     -99.745166      10626.352      21.985081      21.985081      21.985081    
     31500   416.48754     -4260.4727      46.459812     -4214.0129     -497.00105      10623.726      21.98327       21.98327       21.98327     
     32000   396.66653     -4261.8448      44.248748     -4217.596      -2003.2694      10636.67       21.992195      21.992195      21.992195    
     32500   394.96224     -4263.3462      44.058633     -4219.2876     -1649.8526      10623.054      21.982806      21.982806      21.982806    
     33000   400.01333     -4261.7146      44.622089     -4217.0925      4327.8819      10602.052      21.96831       21.96831       21.96831     
     33500   420.5119      -4263.0672      46.908735     -4216.1584     -4267.4555      10650.013      22.001386      22.001386      22.001386    
     34000   422.34699     -4260.3415      47.113442     -4213.2281      7341.334       10578.348      21.951925      21.951925      21.951925    
     34500   403.11116     -4260.4353      44.967657     -4215.4676     -5277.6097      10656.746      22.006022      22.006022      22.006022    
     35000   406.03786     -4263.6976      45.294134     -4218.4035      3002.3493      10599.146      21.966303      21.966303      21.966303    
     35500   396.03132     -4261.9739      44.17789      -4217.796      -2303.6648      10644.023      21.997261      21.997261      21.997261    
     36000   391.20849     -4264.2869      43.639896     -4220.647       3916.0285      10593.218      21.962206      21.962206      21.962206    
     36500   386.23473     -4262.4043      43.085065     -4219.3193     -881.43899      10629.728      21.987409      21.987409      21.987409    
     37000   394.26361     -4262.1719      43.980699     -4218.1912     -898.30974      10634.993      21.991038      21.991038      21.991038    
     37500   402.27046     -4264.1424      44.873875     -4219.2685     -91.633272      10617.429      21.978925      21.978925      21.978925    
     38000   407.00453     -4264.0187      45.401968     -4218.6167      530.54908      10620.99       21.981383      21.981383      21.981383    
     38500   414.08386     -4261.8412      46.191678     -4215.6496     -2155.6769      10645.712      21.998424      21.998424      21.998424    
     39000   396.45975     -4261.9125      44.225682     -4217.6868      4134.2999      10621.361      21.981638      21.981638      21.981638    
     39500   398.10907     -4264.0615      44.409666     -4219.6518     -417.60982      10621.877      21.981994      21.981994      21.981994    
     40000   424.74996     -4264.6094      47.381497     -4217.2279     -1379.2737      10631.827      21.988856      21.988856      21.988856    
     40500   381.07028     -4261.9508      42.508964     -4219.4418      1071.3533      10615.259      21.977428      21.977428      21.977428    
     41000   392.99752     -4264.4178      43.839465     -4220.5783      563.05151      10632.706      21.989462      21.989462      21.989462    
     41500   402.5631      -4262.8836      44.90652      -4217.9771     -534.35798      10633.219      21.989815      21.989815      21.989815    
     42000   397.84165     -4264.808       44.379835     -4220.4282      2744.534       10604.179      21.969778      21.969778      21.969778    
     42500   414.10754     -4266.0869      46.19432      -4219.8926     -3933.369       10628.703      21.986702      21.986702      21.986702    
     43000   412.85758     -4265.593       46.054884     -4219.5381      2080.6328      10595.833      21.964013      21.964013      21.964013    
     43500   396.53162     -4263.2166      44.233699     -4218.9829     -5799.9428      10656.527      22.005871      22.005871      22.005871    
     44000   390.46955     -4264.7178      43.557465     -4221.1603     -1404.6671      10645.354      21.998177      21.998177      21.998177    
     44500   390.73606     -4263.6         43.587196     -4220.0128     -48.902667      10622.433      21.982378      21.982378      21.982378    
     45000   412.66347     -4263.7667      46.033232     -4217.7335      766.05253      10622.103      21.98215       21.98215       21.98215     
     45500   392.06638     -4262.7668      43.735595     -4219.0312      1407.3079      10625.833      21.984723      21.984723      21.984723    
     46000   408.8635      -4266.8125      45.609339     -4221.2032      1715.4806      10600.405      21.967172      21.967172      21.967172    
     46500   406.21767     -4266.6248      45.314193     -4221.3106     -6473.8007      10659.005      22.007577      22.007577      22.007577    
     47000   393.74194     -4266.0024      43.922506     -4222.0799      630.16588      10612.44       21.975482      21.975482      21.975482    
     47500   415.65777     -4265.4148      46.367249     -4219.0476     -2912.8055      10642.99       21.996549      21.996549      21.996549    
     48000   398.30618     -4264.3641      44.431654     -4219.9325      3310.5013      10607.495      21.972069      21.972069      21.972069    
     48500   382.30437     -4266.294       42.646628     -4223.6474     -896.83903      10628.785      21.986758      21.986758      21.986758    
     49000   387.03133     -4265.3428      43.173927     -4222.1689     -1202.6293      10633.238      21.989828      21.989828      21.989828    
     49500   388.24253     -4264.5542      43.309039     -4221.2451      3285.3879      10602.755      21.968795      21.968795      21.968795    
     50000   414.12414     -4264.4959      46.196171     -4218.2997      553.74359      10629.388      21.987174      21.987174      21.987174    
Loop time of 1168.69 on 8 procs for 50000 steps with 864 atoms

Performance: 3.696 ns/day, 6.493 hours/ns, 42.783 timesteps/s, 36.964 katom-step/s
95.2% CPU use with 1 MPI tasks x 8 OpenMP threads

MPI task timing breakdown:
Section |  min time  |  avg time  |  max time  |%varavg| %total
---------------------------------------------------------------
Pair    | 1119       | 1119       | 1119       |   0.0 | 95.75
Neigh   | 0.044187   | 0.044187   | 0.044187   |   0.0 |  0.00
Comm    | 0.57731    | 0.57731    | 0.57731    |   0.0 |  0.05
Output  | 0.005261   | 0.005261   | 0.005261   |   0.0 |  0.00
Modify  | 48.947     | 48.947     | 48.947     |   0.0 |  4.19
Other   |            | 0.1234     |            |       |  0.01

Nlocal:            864 ave         864 max         864 min
Histogram: 1 0 0 0 0 0 0 0 0 0
Nghost:           3608 ave        3608 max        3608 min
Histogram: 1 0 0 0 0 0 0 0 0 0
Neighs:          74492 ave       74492 max       74492 min
Histogram: 1 0 0 0 0 0 0 0 0 0
FullNghs:       148984 ave      148984 max      148984 min
Histogram: 1 0 0 0 0 0 0 0 0 0

Total # of neighbors = 148984
Ave neighs/atom = 172.43519
Neighbor list builds = 24
Dangerous builds = 0

=== FINAL RESULTS: FCC at 400 K ===
Atoms: 864 | PE/atom: -4.93630758544372 eV/atom
WARNING: Detected non-ASCII characters in input. Will try to continue by replacing with ASCII equivalents where known. (src/input.cpp:479)
Volume: 10629.3875542242 …³ | Area: 483.435822050207 ²
==========================================
FCC 400 864 -4.93630758544372 10629.3875542242 21.9871740351098 21.9871740351098 21.9871740351098 483.435822050207
Simulation complete!
Total wall time: 0:28:56
