LAMMPS (10 Sep 2025)
  using 8 OpenMP thread(s) per MPI task
Loaded 1 plugins from C:\Users\harsh\Downloads\LAMMPS 64-bit 10Sep2025\plugins
using multi-threaded neighbor list subroutines
Reading data file ...
  orthogonal box = (0 0 0) to (15.018948 26.013581 24.525839)
  1 by 1 by 1 MPI processor grid
  reading atoms ...
  432 atoms
  read_data CPU = 0.003 seconds
=== STAGE 1: Energy Minimization ===
Switching to 'neigh_modify every 1 delay 0 check yes' setting during minimization
No /omp style for force computation currently active
Neighbor list info ...
  update: every = 1 steps, delay = 0 steps, check = yes
  max neighbors/atom: 4000, page size: 100000
  master list distance cutoff = 8
  ghost atom cutoff = 8
  binsize = 4, bins = 4 7 7
  2 neighbor lists, perpetual/occasional/extra = 2 0 0
  (1) pair meam, perpetual
      attributes: full, newton on, omp
      pair build: full/bin/atomonly/omp
      stencil: full/bin/3d
      bin: standard
  (2) pair meam, perpetual, half/full from (1)
      attributes: half, newton on, omp
      pair build: halffull/newton/omp
      stencil: none
      bin: none
Setting up cg style minimization ...
  Unit style    : metal
  Current step  : 0
Per MPI rank memory allocation (min/avg/max) = 19.46 | 19.46 | 19.46 Mbytes
   Step          Temp          PotEng         KinEng         TotEng         Press          Volume           Lx             Ly             Lz      
         0   0             -1621.6898      0             -1621.6898     -133169.73      9582.1626      15.018948      26.013581      24.525839    
       134   0             -1820.9838      0             -1820.9838     -92272.719      9582.1626      15.018948      26.013581      24.525839    
Loop time of 2.06433 on 8 procs for 134 steps with 432 atoms

97.6% CPU use with 1 MPI tasks x 8 OpenMP threads

Minimization stats:
  Stopping criterion = energy tolerance
  Energy initial, next-to-last, final = 
     -1621.68979319451  -1820.98342447433   -1820.9838018513
  Force two-norm initial, final = 13.109122 2.3445698
  Force max component initial, final = 1.2839495 0.80226052
  Final line search alpha, max atom move = 0.030860482 0.024758146
  Iterations, force evaluations = 134 380

MPI task timing breakdown:
Section |  min time  |  avg time  |  max time  |%varavg| %total
---------------------------------------------------------------
Pair    | 1.9793     | 1.9793     | 1.9793     |   0.0 | 95.88
Neigh   | 0.003287   | 0.003287   | 0.003287   |   0.0 |  0.16
Comm    | 0.002228   | 0.002228   | 0.002228   |   0.0 |  0.11
Output  | 0          | 0          | 0          |   0.0 |  0.00
Modify  | 0.076145   | 0.076145   | 0.076145   |   0.0 |  3.69
Other   |            | 0.003386   |            |       |  0.16

Nlocal:            432 ave         432 max         432 min
Histogram: 1 0 0 0 0 0 0 0 0 0
Nghost:           1943 ave        1943 max        1943 min
Histogram: 1 0 0 0 0 0 0 0 0 0
Neighs:          20943 ave       20943 max       20943 min
Histogram: 1 0 0 0 0 0 0 0 0 0
FullNghs:        41886 ave       41886 max       41886 min
Histogram: 1 0 0 0 0 0 0 0 0 0

Total # of neighbors = 41886
Ave neighs/atom = 96.958333
Neighbor list builds = 4
Dangerous builds = 0
Minimized PE/atom: -4.21524028206319 eV/atom
=== STAGE 2: NPT Equilibration at 650 K ===
No /omp style for force computation currently active
Setting up Verlet run ...
  Unit style    : metal
  Current step  : 0
  Time step     : 0.002
Per MPI rank memory allocation (min/avg/max) = 18.34 | 18.34 | 18.34 Mbytes
   Step          Temp          PotEng         KinEng         TotEng         Press          Volume           Lx             Ly             Lz      
         0   650           -1820.9838      36.21223      -1784.7716     -88236.165      9582.1626      15.018948      26.013581      24.525839    
       500   968.34475     -2048.5481      53.947573     -1994.6005     -560.62119      5601.7852      12.558193      21.751428      20.507443    
      1000   591.68863     -2089.5327      32.963638     -2056.5691      3893.5383      5404.0966      12.408693      21.492487      20.263311    
      1500   630.85848     -2097.1917      35.145834     -2062.0459      1585.1852      5405.0716      12.409439      21.493779      20.264529    
      2000   678.02207     -2096.184       37.773371     -2058.4106      2092.1502      5398.3726      12.40431       21.484896      20.256154    
      2500   628.50736     -2101.4949      35.01485      -2066.4801      7108.1134      5388.9433      12.397084      21.472379      20.244353    
      3000   655.24428     -2108.035       36.504395     -2071.5306      8512.6961      5373.681       12.385369      21.452089      20.225223    
      3500   606.76042     -2110.4621      33.803304     -2076.6588     -841.97219      5391.6766      12.39918       21.476009      20.247775    
      4000   674.43801     -2114.9235      37.573699     -2077.3498     -1987.2049      5386.1335      12.394929      21.468647      20.240834    
      4500   623.5822      -2111.6885      34.740465     -2076.9481     -3431.4638      5406.3658      12.410429      21.495494      20.266146    
      5000   631.72876     -2112.1007      35.194318     -2076.9064     -1075.1746      5402.3677      12.407369      21.490194      20.26115     
      5500   576.73763     -2115.5972      32.130701     -2083.4665      281.65981      5375.7491      12.386958      21.454841      20.227818    
      6000   647.29002     -2115.3816      36.061253     -2079.3204      1385.0523      5379.1175      12.389545      21.459321      20.232042    
      6500   636.20155     -2112.909       35.443503     -2077.4655      7187.5799      5377.6621      12.388427      21.457385      20.230217    
      7000   670.13937     -2119.5232      37.334217     -2082.189       5718.019       5363.4217      12.377482      21.438428      20.212344    
      7500   606.68408     -2116.4515      33.799051     -2082.6525      852.55451      5390.0846      12.397959      21.473895      20.245782    
      8000   643.96763     -2119.6578      35.876159     -2083.7816      1769.4899      5360.4115      12.375166      21.434417      20.208562    
      8500   649.63246     -2120.5772      36.191753     -2084.3854      2193.2658      5378.5678      12.389123      21.45859       20.231353    
      9000   669.41089     -2118.2372      37.293632     -2080.9436     -1524.6567      5399.7788      12.405387      21.486761      20.257913    
      9500   712.35095     -2116.61        39.685871     -2076.9241      1789.1563      5405.2628      12.409585      21.494032      20.264768    
     10000   639.5372      -2120.4411      35.629335     -2084.8118      3807.9057      5385.3694      12.394343      21.467631      20.239877    
     10500   657.14303     -2119.4293      36.610176     -2082.8191      6051.7182      5388.4181      12.396681      21.471682      20.243696    
     11000   713.75938     -2121.9846      39.764336     -2082.2203      10044.635      5377.1497      12.388034      21.456704      20.229574    
     11500   677.71276     -2125.4203      37.756138     -2087.6642      4592.7651      5365.7901      12.379304      21.441584      20.215319    
     12000   648.35899     -2120.6833      36.120807     -2084.5625      3813.7265      5386.1151      12.394915      21.468622      20.240811    
     12500   646.62858     -2122.4532      36.024404     -2086.4288     -413.33792      5398.8486      12.404675      21.485527      20.256749    
     13000   600.49869     -2122.3242      33.454456     -2088.8697     -8417.0724      5410.7447      12.413779      21.501296      20.271617    
     13500   628.86559     -2125.4642      35.034808     -2090.4294     -8074.296       5395.2712      12.401934      21.48078       20.252274    
     14000   661.96932     -2124.0346      36.879054     -2087.1556     -3231.8394      5402.9989      12.407853      21.491031      20.261939    
     14500   681.37668     -2122.4559      37.96026      -2084.4957     -4069.812       5400.4116      12.405872      21.4876        20.258704    
     15000   636.29487     -2123.5208      35.448701     -2088.0721      3282.1578      5381.8127      12.391614      21.462904      20.23542     
     15500   650.52786     -2122.4063      36.241638     -2086.1647      2924.5305      5379.4166      12.389774      21.459719      20.232417    
     16000   668.80393     -2120.7005      37.259818     -2083.4407     -3992.2706      5407.1816      12.411054      21.496576      20.267166    
     16500   676.96791     -2122.1456      37.714642     -2084.4309      2456.3753      5395.565       12.402159      21.48117       20.252642    
     17000   644.84068     -2122.8651      35.924798     -2086.9403     -3659.5496      5397.0161      12.403271      21.483096      20.254457    
     17500   620.49803     -2123.7545      34.568642     -2089.1859     -1091.6788      5383.6971      12.39306       21.465409      20.237782    
     18000   641.50224     -2124.8453      35.73881      -2089.1065      1681.3304      5375.077       12.386442      21.453946      20.226975    
     18500   672.03652     -2123.1537      37.439909     -2085.7138     -3577.0664      5403.1381      12.407959      21.491216      20.262113    
     19000   633.49465     -2122.4324      35.292698     -2087.1397     -5159.9333      5416.8764      12.418467      21.509415      20.279271    
     19500   602.19367     -2124.4414      33.548885     -2090.8925     -3515.1776      5403.6749      12.40837       21.491928      20.262784    
     20000   605.45728     -2127.4755      33.730704     -2093.7448     -3023.8854      5380.3665      12.390503      21.460982      20.233607    
Loop time of 228.269 on 8 procs for 20000 steps with 432 atoms

Performance: 15.140 ns/day, 1.585 hours/ns, 87.616 timesteps/s, 37.850 katom-step/s
93.3% CPU use with 1 MPI tasks x 8 OpenMP threads

MPI task timing breakdown:
Section |  min time  |  avg time  |  max time  |%varavg| %total
---------------------------------------------------------------
Pair    | 209.66     | 209.66     | 209.66     |   0.0 | 91.85
Neigh   | 0.04994    | 0.04994    | 0.04994    |   0.0 |  0.02
Comm    | 0.15014    | 0.15014    | 0.15014    |   0.0 |  0.07
Output  | 0.002454   | 0.002454   | 0.002454   |   0.0 |  0.00
Modify  | 18.375     | 18.375     | 18.375     |   0.0 |  8.05
Other   |            | 0.03216    |            |       |  0.01

Nlocal:            432 ave         432 max         432 min
Histogram: 1 0 0 0 0 0 0 0 0 0
Nghost:           2665 ave        2665 max        2665 min
Histogram: 1 0 0 0 0 0 0 0 0 0
Neighs:          36907 ave       36907 max       36907 min
Histogram: 1 0 0 0 0 0 0 0 0 0
FullNghs:        73814 ave       73814 max       73814 min
Histogram: 1 0 0 0 0 0 0 0 0 0

Total # of neighbors = 73814
Ave neighs/atom = 170.86574
Neighbor list builds = 54
Dangerous builds = 0
=== STAGE 3: NPT Production at 650 K ===
No /omp style for force computation currently active
Setting up Verlet run ...
  Unit style    : metal
  Current step  : 0
  Time step     : 0.001
Per MPI rank memory allocation (min/avg/max) = 18.68 | 18.68 | 18.68 Mbytes
   Step          Temp          PotEng         KinEng         TotEng         Press          Volume           Lx             Ly             Lz      
         0   605.45728     -2127.4755      33.730704     -2093.7448     -3023.8854      5380.3665      12.390503      21.460982      20.233607    
       500   653.44288     -2124.7508      36.404036     -2088.3468     -4430.9864      5383.9834      12.393279      21.46579       20.23814     
      1000   675.35428     -2125.4655      37.624745     -2087.8408     -2842.6762      5392.7709      12.400018      21.477462      20.249145    
      1500   608.58359     -2126.0219      33.904875     -2092.1171     -4365.4926      5395.4741      12.40209       21.48105       20.252528    
      2000   671.97001     -2122.9007      37.436204     -2085.4645     -5555.0565      5406.4973      12.41053       21.495669      20.266311    
      2500   653.24205     -2125.6333      36.392848     -2089.2405     -12931.344      5418.4108      12.419639      21.511446      20.281186    
      3000   628.63469     -2125.1369      35.021944     -2090.115      -4738.844       5402.7074      12.40763       21.490645      20.261574    
      3500   679.9465      -2124.3819      37.880583     -2086.5013     -1552.3681      5395.4937      12.402105      21.481076      20.252552    
      4000   666.45031     -2122.4917      37.128695     -2085.363       1813.439       5380.598       12.390681      21.461289      20.233898    
      4500   651.21204     -2125.3626      36.279754     -2089.0829     -4455.4272      5408.5643      12.412111      21.498408      20.268893    
      5000   635.70748     -2123.4025      35.415977     -2087.9865     -5738.2952      5409.4376      12.412779      21.499565      20.269984    
      5500   628.4257      -2122.4386      35.010301     -2087.4283      1725.3889      5391.0394      12.398691      21.475163      20.246978    
      6000   641.34521     -2125.5431      35.730061     -2089.813      -907.80926      5381.6822      12.391513      21.462731      20.235257    
      6500   670.44618     -2124.7725      37.351309     -2087.4212      7453.3619      5350.4975      12.367532      21.421195      20.196096    
      7000   669.58804     -2126.4488      37.303501     -2089.1453      6904.5419      5365.1306      12.378797      21.440705      20.214491    
      7500   666.8311      -2124.696       37.149909     -2087.5461     -1906.8517      5397.3084      12.403495      21.483484      20.254823    
      8000   631.8918      -2121.0054      35.203401     -2085.802       4619.9756      5385.1255      12.394156      21.467307      20.239571    
      8500   682.25039     -2124.1525      38.008935     -2086.1436     -3723.1685      5403.9971      12.408617      21.492355      20.263186    
      9000   628.80739     -2125.4539      35.031565     -2090.4224     -2037.7788      5381.5832      12.391437      21.462599      20.235133    
      9500   677.80184     -2124.954       37.761101     -2087.1929      2740.5887      5386.7478      12.3954        21.469463      20.241604    
     10000   681.91213     -2124.4494      37.99009      -2086.4593     -3857.3074      5408.5639      12.412111      21.498407      20.268893    
     10500   634.59689     -2124.5974      35.354105     -2089.2433     -6826.8793      5410.7655      12.413795      21.501324      20.271642    
     11000   643.03807     -2125.9132      35.824373     -2090.0888     -7991.9092      5417.1817      12.4187        21.509819      20.279652    
     11500   629.33029     -2120.2022      35.060697     -2085.1415     -2262.9169      5410.8211      12.413838      21.501397      20.271712    
     12000   690.35584     -2125.1476      38.460499     -2086.6871     -7402.5089      5420.0259      12.420873      21.513583      20.283201    
     12500   650.14679     -2123.7852      36.220407     -2087.5648     -7648.544       5428.9564      12.427691      21.525393      20.294335    
     13000   615.66376     -2125.1745      34.299319     -2090.8751     -2881.8945      5392.6624      12.399935      21.477318      20.249009    
     13500   622.74931     -2123.1064      34.694063     -2088.4124     -2383.3865      5391.9211      12.399367      21.476334      20.248081    
     14000   660.2244      -2125.2022      36.781842     -2088.4204     -1824.211       5384.0367      12.39332       21.46586       20.238207    
     14500   652.57188     -2123.2756      36.355512     -2086.9201     -7934.8712      5419.5697      12.420525      21.51298       20.282632    
     15000   632.72497     -2122.7183      35.249818     -2087.4685     -8041.5836      5433.8427      12.431419      21.531849      20.300422    
     15500   626.25091     -2120.0751      34.889141     -2085.186      -6022.8446      5434.651       12.432035      21.532916      20.301428    
     16000   613.63309     -2124.7183      34.186188     -2090.5321     -2659.517       5400.955       12.406288      21.488321      20.259383    
     16500   631.28663     -2127.1419      35.169687     -2091.9723     -545.58096      5383.6081      12.392991      21.465291      20.23767     
     17000   650.80969     -2122.4873      36.257338     -2086.2299      5215.5531      5377.8617      12.38858       21.457651      20.230467    
     17500   631.3124      -2126.3882      35.171122     -2091.2171      2073.0276      5379.3259      12.389705      21.459598      20.232303    
     18000   692.44223     -2125.3499      38.576734     -2086.7732      851.34649      5392.3038      12.39966       21.476842      20.24856     
     18500   663.46722     -2124.2055      36.962504     -2087.243       7984.17        5372.2865      12.384298      21.450233      20.223474    
     19000   680.50035     -2127.1361      37.911439     -2089.2247      2846.2706      5375.2899      12.386605      21.45423       20.227242    
     19500   617.99879     -2128.0053      34.429406     -2093.5759      2081.9758      5368.8722      12.381674      21.445688      20.219189    
     20000   704.07681     -2127.1532      39.224909     -2087.9283     -513.02905      5390.0796      12.397955      21.473888      20.245776    
     20500   619.12524     -2124.7107      34.492162     -2090.2186     -822.86479      5395.3024      12.401958      21.480822      20.252313    
     21000   651.599       -2126.7601      36.301312     -2090.4588      2721.9691      5376.8813      12.387828      21.456347      20.229238    
     21500   646.25096     -2128.025       36.003366     -2092.0217      6735.2992      5363.9709      12.377905      21.43916       20.213034    
     22000   651.95666     -2130.7166      36.321238     -2094.3954     -560.71615      5372.7461      12.384651      21.450845      20.22405     
     22500   658.12022     -2125.5299      36.664616     -2088.8653      205.20976      5393.3806      12.400486      21.478271      20.249908    
     23000   610.07076     -2127.2089      33.987727     -2093.2211      1069.8891      5377.7579      12.388501      21.457513      20.230337    
     23500   649.40842     -2125.9113      36.179272     -2089.732      -4825.2572      5405.7609      12.409967      21.494693      20.265391    
     24000   638.79505     -2125.0284      35.587989     -2089.4404     -7711.0152      5420.0338      12.420879      21.513594      20.283211    
     24500   656.315       -2127.2762      36.564045     -2090.7122     -8710.3393      5425.5014      12.425054      21.520825      20.290029    
     25000   645.33256     -2127.8347      35.952201     -2091.8825      1985.0139      5376.3763      12.38744       21.455675      20.228604    
     25500   663.40181     -2129.1949      36.958859     -2092.236       6075.689       5354.1527      12.370348      21.426071      20.200694    
     26000   684.54647     -2128.0023      38.136852     -2089.8655     -2549.9826      5387.245       12.395781      21.470123      20.242226    
     26500   627.89662     -2124.5706      34.980826     -2089.5898     -6697.3771      5417.297       12.418788      21.509972      20.279796    
     27000   677.65354     -2126.7588      37.75284      -2089.006      -12419.767      5431.6401      12.429739      21.528939      20.297678    
     27500   637.84147     -2126.5058      35.534865     -2090.9709     -8266.9332      5415.9357      12.417748      21.50817       20.278097    
     28000   645.90399     -2126.3756      35.984036     -2090.3916     -2868.754       5396.7087      12.403036      21.482688      20.254073    
     28500   630.93256     -2128.2793      35.149961     -2093.1294     -1867.7839      5382.4453      12.392099      21.463745      20.236213    
     29000   658.97385     -2128.9171      36.712173     -2092.2049     -2795.0864      5386.4088      12.39514       21.469012      20.241179    
     29500   705.00536     -2128.4524      39.27664      -2089.1758     -354.17164      5377.7809      12.388518      21.457543      20.230366    
     30000   649.98237     -2126.2398      36.211248     -2090.0285      812.8626       5395.4695      12.402086      21.481044      20.252522    
     30500   636.14155     -2128.7147      35.44016      -2093.2745      1637.7586      5379.1327      12.389556      21.459341      20.232061    
     31000   680.4355      -2127.5374      37.907825     -2089.6296     -4079.2695      5405.0425      12.409417      21.49374       20.264493    
     31500   603.73814     -2127.1133      33.634929     -2093.4784     -4317.7749      5399.4894      12.405166      21.486377      20.257551    
     32000   596.40333     -2127.8789      33.226299     -2094.6526     -6924.4603      5403.5358      12.408264      21.491743      20.26261     
     32500   704.73888     -2126.4342      39.261794     -2087.1724     -3788.1921      5417.8245      12.419191      21.51067       20.280454    
     33000   683.129       -2128.5632      38.057883     -2090.5053     -1065.1539      5400.4211      12.405879      21.487613      20.258716    
     33500   644.08862     -2128.898       35.8829       -2093.0151     -1512.2216      5387.8692      12.39626       21.470952      20.243008    
     34000   654.79903     -2128.1071      36.479589     -2091.6275      1716.9722      5380.5349      12.390633      21.461206      20.233819    
     34500   675.35044     -2127.149       37.624531     -2089.5245      7586.8948      5356.9782      12.372524      21.42984       20.204247    
     35000   663.53035     -2131.9057      36.96602      -2094.9396      5169.6586      5327.586       12.349854      21.390575      20.167227    
     35500   614.02147     -2127.9205      34.207825     -2093.7127      819.00185      5380.075       12.39028       21.460594      20.233242    
     36000   661.63122     -2129.1621      36.860218     -2092.3019     -1475.1289      5394.1544      12.401079      21.479298      20.250877    
     36500   644.45371     -2130.1036      35.90324      -2094.2004     -6118.0655      5400.1986      12.405709      21.487318      20.258437    
     37000   636.11576     -2126.842       35.438723     -2091.4033     -12003.875      5424.1102      12.423992      21.518986      20.288294    
     37500   680.16405     -2127.04        37.892703     -2089.1473     -7206.7494      5423.4476      12.423486      21.518109      20.287468    
     38000   661.16958     -2128.739       36.8345       -2091.9045     -1254.4081      5391.9999      12.399427      21.476438      20.24818     
     38500   638.72932     -2129.0212      35.584328     -2093.4368      6189.7419      5357.1839      12.372682      21.430114      20.204505    
     39000   645.48356     -2131.4661      35.960614     -2095.5055      5669.2032      5357.3759      12.37283       21.43037       20.204747    
     39500   627.39524     -2128.2878      34.952893     -2093.3349     -2260.2512      5382.3626      12.392036      21.463635      20.236109    
     40000   627.63134     -2125.6367      34.966046     -2090.6706     -620.97862      5394.9804      12.401712      21.480395      20.25191     
     40500   667.67873     -2128.342       37.197131     -2091.1449     -1294.6329      5389.3802      12.397419      21.472959      20.2449      
     41000   630.08258     -2131.7006      35.102608     -2096.598      -4211.595       5382.2791      12.391972      21.463524      20.236005    
     41500   646.01483     -2126.3407      35.990211     -2090.3505     -3383.8625      5408.147       12.411792      21.497855      20.268372    
     42000   632.31216     -2131.1024      35.22682      -2095.8756     -5361.817       5390.6315      12.398378      21.474621      20.246467    
     42500   646.49959     -2129.2069      36.017218     -2093.1897     -669.74725      5383.9946      12.393288      21.465804      20.238155    
     43000   652.4542      -2127.1204      36.348956     -2090.7714     -1761.9948      5381.7174      12.39154       21.462778      20.235301    
     43500   611.4034      -2127.7014      34.06197      -2093.6395     -6388.6942      5406.5371      12.410561      21.495721      20.26636     
     44000   662.12273     -2132.5363      36.887601     -2095.6487     -9221.6284      5392.3723      12.399713      21.476933      20.248646    
     44500   663.62553     -2130.5238      36.971323     -2093.5524     -721.14409      5385.6004      12.39452       21.467938      20.240166    
     45000   676.72874     -2130.0992      37.701318     -2092.3978      417.17546      5372.6265      12.384559      21.450686      20.2239      
     45500   649.40588     -2132.0862      36.17913      -2095.907       4641.5349      5351.3235      12.368169      21.422297      20.197135    
     46000   638.94815     -2130.7657      35.596518     -2095.1691      1599.199       5366.2264      12.37964       21.442165      20.215867    
     46500   687.43821     -2129.6983      38.297954     -2091.4004      3151.9209      5382.3748      12.392045      21.463651      20.236125    
     47000   643.49343     -2131.808       35.849741     -2095.9582      1901.3741      5363.0625      12.377206      21.43795       20.211893    
     47500   651.12204     -2131.5225      36.27474      -2095.2478      4123.0721      5355.6459      12.371498      21.428063      20.202572    
     48000   648.52562     -2130.5321      36.13009      -2094.402      -4748.0284      5396.6038      12.402955      21.482549      20.253941    
     48500   625.77051     -2127.9087      34.862377     -2093.0463     -8813.843       5418.9211      12.420029      21.512121      20.281822    
     49000   650.62056     -2127.6887      36.246802     -2091.4419     -3602.4109      5396.5533      12.402917      21.482482      20.253878    
     49500   691.23852     -2130.4429      38.509674     -2091.9332     -5484.8986      5393.6308      12.400677      21.478603      20.250221    
     50000   642.09906     -2129.8662      35.772059     -2094.0941     -3196.5969      5387.8763      12.396266      21.470962      20.243017    
Loop time of 566.765 on 8 procs for 50000 steps with 432 atoms

Performance: 7.622 ns/day, 3.149 hours/ns, 88.220 timesteps/s, 38.111 katom-step/s
93.3% CPU use with 1 MPI tasks x 8 OpenMP threads

MPI task timing breakdown:
Section |  min time  |  avg time  |  max time  |%varavg| %total
---------------------------------------------------------------
Pair    | 520.03     | 520.03     | 520.03     |   0.0 | 91.75
Neigh   | 0.035912   | 0.035912   | 0.035912   |   0.0 |  0.01
Comm    | 0.3777     | 0.3777     | 0.3777     |   0.0 |  0.07
Output  | 0.005417   | 0.005417   | 0.005417   |   0.0 |  0.00
Modify  | 46.24      | 46.24      | 46.24      |   0.0 |  8.16
Other   |            | 0.07284    |            |       |  0.01

Nlocal:            432 ave         432 max         432 min
Histogram: 1 0 0 0 0 0 0 0 0 0
Nghost:           2634 ave        2634 max        2634 min
Histogram: 1 0 0 0 0 0 0 0 0 0
Neighs:          36699 ave       36699 max       36699 min
Histogram: 1 0 0 0 0 0 0 0 0 0
FullNghs:        73398 ave       73398 max       73398 min
Histogram: 1 0 0 0 0 0 0 0 0 0

Total # of neighbors = 73398
Ave neighs/atom = 169.90278
Neighbor list builds = 40
Dangerous builds = 0

=== FINAL RESULTS: HCP at 650 K ===
Atoms: 432 | PE/atom: -4.93020504560084 eV/atom
WARNING: Detected non-ASCII characters in input. Will try to continue by replacing with ASCII equivalents where known. (src/input.cpp:479)
Volume: 5387.87626610541 …³ | Area: 266.159746331958 ²
==========================================
HCP 650 432 -4.93020504560084 5387.87626610541 12.3962656133983 21.4709618713142 20.2430169864439 266.159746331958
Simulation complete!
Total wall time: 0:13:17
