LAMMPS (10 Sep 2025)
  using 8 OpenMP thread(s) per MPI task
Loaded 1 plugins from C:\Users\harsh\Downloads\LAMMPS 64-bit 10Sep2025\plugins
using multi-threaded neighbor list subroutines
Reading data file ...
  orthogonal box = (0 0 0) to (15.018948 26.013581 24.525839)
  1 by 1 by 1 MPI processor grid
  reading atoms ...
  432 atoms
  read_data CPU = 0.004 seconds
=== STAGE 1: Energy Minimization ===
Switching to 'neigh_modify every 1 delay 0 check yes' setting during minimization
No /omp style for force computation currently active
Neighbor list info ...
  update: every = 1 steps, delay = 0 steps, check = yes
  max neighbors/atom: 4000, page size: 100000
  master list distance cutoff = 8
  ghost atom cutoff = 8
  binsize = 4, bins = 4 7 7
  2 neighbor lists, perpetual/occasional/extra = 2 0 0
  (1) pair meam, perpetual
      attributes: full, newton on, omp
      pair build: full/bin/atomonly/omp
      stencil: full/bin/3d
      bin: standard
  (2) pair meam, perpetual, half/full from (1)
      attributes: half, newton on, omp
      pair build: halffull/newton/omp
      stencil: none
      bin: none
Setting up cg style minimization ...
  Unit style    : metal
  Current step  : 0
Per MPI rank memory allocation (min/avg/max) = 19.42 | 19.42 | 19.42 Mbytes
   Step          Temp          PotEng         KinEng         TotEng         Press          Volume           Lx             Ly             Lz      
         0   0             -1590.0128      0             -1590.0128     -53663.804      9582.1626      15.018948      26.013581      24.525839    
       500   0             -2014.8899      0             -2014.8899     -13406.294      9582.1626      15.018948      26.013581      24.525839    
       513   0             -2015.0682      0             -2015.0682     -13522.753      9582.1626      15.018948      26.013581      24.525839    
Loop time of 7.70761 on 8 procs for 513 steps with 432 atoms

95.9% CPU use with 1 MPI tasks x 8 OpenMP threads

Minimization stats:
  Stopping criterion = energy tolerance
  Energy initial, next-to-last, final = 
     -1590.01284852963  -2015.06736934808  -2015.06821356055
  Force two-norm initial, final = 40.913755 0.88061455
  Force max component initial, final = 7.6376805 0.42223518
  Final line search alpha, max atom move = 0.37931565 0.16016041
  Iterations, force evaluations = 513 985

MPI task timing breakdown:
Section |  min time  |  avg time  |  max time  |%varavg| %total
---------------------------------------------------------------
Pair    | 7.4272     | 7.4272     | 7.4272     |   0.0 | 96.36
Neigh   | 0.018257   | 0.018257   | 0.018257   |   0.0 |  0.24
Comm    | 0.006569   | 0.006569   | 0.006569   |   0.0 |  0.09
Output  | 7.2e-05    | 7.2e-05    | 7.2e-05    |   0.0 |  0.00
Modify  | 0.23881    | 0.23881    | 0.23881    |   0.0 |  3.10
Other   |            | 0.01671    |            |       |  0.22

Nlocal:            432 ave         432 max         432 min
Histogram: 1 0 0 0 0 0 0 0 0 0
Nghost:           1646 ave        1646 max        1646 min
Histogram: 1 0 0 0 0 0 0 0 0 0
Neighs:          29056 ave       29056 max       29056 min
Histogram: 1 0 0 0 0 0 0 0 0 0
FullNghs:        58112 ave       58112 max       58112 min
Histogram: 1 0 0 0 0 0 0 0 0 0

Total # of neighbors = 58112
Ave neighs/atom = 134.51852
Neighbor list builds = 21
Dangerous builds = 0
Minimized PE/atom: -4.66450975361238 eV/atom
=== STAGE 2: NPT Equilibration at 200 K ===
No /omp style for force computation currently active
Setting up Verlet run ...
  Unit style    : metal
  Current step  : 0
  Time step     : 0.002
Per MPI rank memory allocation (min/avg/max) = 18.49 | 18.49 | 18.49 Mbytes
   Step          Temp          PotEng         KinEng         TotEng         Press          Volume           Lx             Ly             Lz      
         0   200           -2015.0682      11.142224     -2003.926      -12280.737      9582.1626      15.018948      26.013581      24.525839    
       500   238.75124     -2016.352       13.3011       -2003.0509      3223.3484      7900.3683      14.083182      24.392786      22.997739    
      1000   210.80981     -2026.9787      11.744451     -2015.2342      536.59778      7574.1174      13.886592      24.052283      22.67671     
      1500   207.14031     -2033.0595      11.540019     -2021.5194     -1503.3914      7291.1261      13.711444      23.748918      22.390695    
      2000   314.83289     -2049.7911      17.539694     -2032.2514     -4893.9834      6397.6369      13.12678       22.736249      21.435942    
      2500   323.15601     -2107.8737      18.003384     -2089.8703     -2747.6014      5381.8238      12.391622      21.462919      20.235434    
      3000   192.65516     -2128.5255      10.733035     -2117.7925     -2902.6816      5309.1725      12.33561       21.365902      20.143966    
      3500   209.51135     -2131.3501      11.672113     -2119.678       409.00186      5300.9485      12.329237      21.354865      20.13356     
      4000   207.80781     -2134.7408      11.577206     -2123.1636      875.88428      5306.7733      12.333751      21.362684      20.140931    
      4500   192.40991     -2135.36        10.719372     -2124.6406      602.52927      5291.2593      12.32172       21.341846      20.121285    
      5000   191.08472     -2136.7777      10.645544     -2126.1322     -2675.7592      5303.6961      12.331367      21.358554      20.137038    
      5500   195.75223     -2137.4419      10.905576     -2126.5363     -808.04539      5290.7632      12.321335      21.341179      20.120656    
      6000   205.9766      -2139.6193      11.475188     -2128.1441     -928.44914      5284.8514      12.316744      21.333227      20.113159    
      6500   191.09471     -2141.1748      10.646101     -2130.5287     -2011.3041      5293.0052      12.323075      21.344193      20.123498    
      7000   198.70391     -2141.8276      11.070018     -2130.7576      2390.8145      5278.4993      12.311808      21.324676      20.105098    
      7500   211.27326     -2141.7605      11.77027      -2129.9902     -364.59876      5286.1752      12.317773      21.335008      20.114839    
      8000   212.82634     -2143.7081      11.856794     -2131.8513     -5850.1701      5297.3326      12.326433      21.350008      20.128981    
      8500   195.41675     -2143.6698      10.886887     -2132.7829      4589.5766      5263.0764      12.299805      21.303887      20.085498    
      9000   202.35123     -2145.2834      11.273214     -2134.0102     -6928.252       5297.4368      12.326514      21.350148      20.129113    
      9500   190.63564     -2145.2726      10.620525     -2134.6521      521.86344      5279.016       12.312209      21.325372      20.105754    
     10000   188.21316     -2145.4705      10.485567     -2134.9849     -33.777716      5274.3322      12.308567      21.319063      20.099806    
     10500   199.28211     -2146.2147      11.10223      -2135.1124     -1321.0605      5284.5554      12.316514      21.332829      20.112784    
     11000   198.37291     -2145.1658      11.051578     -2134.1142     -4496.2296      5298.7498      12.327532      21.351912      20.130775    
     11500   208.6074      -2145.6418      11.621752     -2134.0201      67.146022      5279.344       12.312464      21.325814      20.10617     
     12000   199.22853     -2145.7304      11.099245     -2134.6312     -435.68396      5279.874       12.312876      21.326528      20.106843    
     12500   203.18937     -2145.9272      11.319908     -2134.6073      4042.129       5268.3242      12.303892      21.310966      20.092171    
     13000   209.99191     -2145.3606      11.698885     -2133.6617     -2262.4185      5291.6181      12.321999      21.342328      20.12174     
     13500   196.21976     -2145.3612      10.931623     -2134.4296      978.96621      5277.2972      12.310873      21.323058      20.103571    
     14000   212.2386      -2145.9287      11.824051     -2134.1046      2816.1683      5271.8826      12.306661      21.315763      20.096694    
     14500   204.78037     -2144.8923      11.408544     -2133.4838     -6000.9168      5296.9664      12.326149      21.349516      20.128517    
     15000   203.60116     -2145.803       11.342849     -2134.4602     -688.83094      5272.7278      12.307319      21.316902      20.097768    
     15500   191.99867     -2145.6117      10.696461     -2134.9152      2778.1918      5258.436       12.296189      21.297624      20.079593    
     16000   198.43738     -2145.0273      11.055169     -2133.9721     -158.71231      5269.6982      12.304961      21.312818      20.093918    
     16500   200.42899     -2144.8363      11.166124     -2133.6702     -158.67904      5278.6118      12.311895      21.324828      20.105241    
     17000   204.55111     -2145.3081      11.395772     -2133.9123     -2666.8887      5282.899       12.315227      21.3306        20.110682    
     17500   203.06368     -2145.838       11.312905     -2134.5251     -1885.6602      5277.0924      12.310714      21.322782      20.103311    
     18000   200.11564     -2145.7347      11.148667     -2134.5861      6318.1762      5257.513       12.29547       21.296378      20.078418    
     18500   202.64509     -2145.4193      11.289585     -2134.1297     -5203.1578      5292.8393      12.322947      21.34397       20.123288    
     19000   199.49805     -2146.0412      11.11426      -2134.9269      2124.3054      5261.1649      12.298316      21.301308      20.083066    
     19500   189.13523     -2145.9427      10.536936     -2135.4058      3851.5522      5257.3365      12.295332      21.29614       20.078193    
     20000   190.34956     -2146.1043      10.604588     -2135.4997     -1232.3549      5277.5153      12.311043      21.323351      20.103848    
Loop time of 231.215 on 8 procs for 20000 steps with 432 atoms

Performance: 14.947 ns/day, 1.606 hours/ns, 86.500 timesteps/s, 37.368 katom-step/s
93.5% CPU use with 1 MPI tasks x 8 OpenMP threads

MPI task timing breakdown:
Section |  min time  |  avg time  |  max time  |%varavg| %total
---------------------------------------------------------------
Pair    | 212.41     | 212.41     | 212.41     |   0.0 | 91.87
Neigh   | 0.02416    | 0.02416    | 0.02416    |   0.0 |  0.01
Comm    | 0.14318    | 0.14318    | 0.14318    |   0.0 |  0.06
Output  | 0.002506   | 0.002506   | 0.002506   |   0.0 |  0.00
Modify  | 18.61      | 18.61      | 18.61      |   0.0 |  8.05
Other   |            | 0.02905    |            |       |  0.01

Nlocal:            432 ave         432 max         432 min
Histogram: 1 0 0 0 0 0 0 0 0 0
Nghost:           2700 ave        2700 max        2700 min
Histogram: 1 0 0 0 0 0 0 0 0 0
Neighs:          37377 ave       37377 max       37377 min
Histogram: 1 0 0 0 0 0 0 0 0 0
FullNghs:        74754 ave       74754 max       74754 min
Histogram: 1 0 0 0 0 0 0 0 0 0

Total # of neighbors = 74754
Ave neighs/atom = 173.04167
Neighbor list builds = 27
Dangerous builds = 0
=== STAGE 3: NPT Production at 200 K ===
No /omp style for force computation currently active
Setting up Verlet run ...
  Unit style    : metal
  Current step  : 0
  Time step     : 0.001
Per MPI rank memory allocation (min/avg/max) = 18.9 | 18.9 | 18.9 Mbytes
   Step          Temp          PotEng         KinEng         TotEng         Press          Volume           Lx             Ly             Lz      
         0   190.34956     -2146.1043      10.604588     -2135.4997     -1232.3549      5277.5153      12.311043      21.323351      20.103848    
       500   204.52657     -2146.1566      11.394405     -2134.7622     -591.27019      5268.354       12.303915      21.311006      20.092209    
      1000   198.8443      -2146.1273      11.077839     -2135.0495      5203.1936      5252.526       12.291581      21.289642      20.072067    
      1500   193.70843     -2146.2651      10.791714     -2135.4734     -3034.4988      5282.9935      12.315301      21.330727      20.110802    
      2000   196.70935     -2145.7892      10.958899     -2134.8303     -192.49092      5275.3989      12.309397      21.320501      20.101161    
      2500   204.15788     -2145.2822      11.373865     -2133.9083      3349.1391      5268.8637      12.304312      21.311693      20.092857    
      3000   207.27341     -2146.2909      11.547434     -2134.7435     -1224.421       5272.5805      12.307204      21.316703      20.09758     
      3500   188.52129     -2146.141       10.502733     -2135.6383     -2190.7696      5278.2229      12.311593      21.324304      20.104747    
      4000   186.86688     -2146.2298      10.410564     -2135.8192      3878.9269      5257.3913      12.295375      21.296214      20.078263    
      4500   201.96438     -2145.2824      11.251662     -2134.0307     -3029.5989      5290.009       12.32075       21.340165      20.1197      
      5000   202.33344     -2145.8317      11.272223     -2134.5595     -796.73886      5278.6342      12.311913      21.324858      20.105269    
      5500   205.18097     -2146.9967      11.430862     -2135.5659     -120.86175      5271.2295      12.306153      21.314882      20.095864    
      6000   196.91005     -2146.5907      10.97008      -2135.6206     -4595.7451      5290.7989      12.321363      21.341227      20.120702    
      6500   203.94783     -2146.1333      11.362163     -2134.7711      4193.9641      5268.4026      12.303953      21.311071      20.092271    
      7000   206.03482     -2146.6428      11.478431     -2135.1643      1563.6505      5274.4466      12.308656      21.319218      20.099951    
      7500   197.02419     -2146.5023      10.976439     -2135.5259     -294.0706       5277.5088      12.311038      21.323343      20.10384     
      8000   195.6755      -2145.1337      10.901302     -2134.2324     -4558.7139      5295.2923      12.32485       21.347267      20.126396    
      8500   208.0505      -2146.1435      11.590727     -2134.5527      1232.5935      5280.7701      12.313573      21.327734      20.107981    
      9000   201.70743     -2146.4844      11.237347     -2135.247      -847.47362      5284.4612      12.316441      21.332702      20.112664    
      9500   215.06886     -2146.6249      11.981727     -2134.6431     -847.52218      5277.1973      12.310795      21.322923      20.103445    
     10000   205.20651     -2145.8522      11.432285     -2134.42       -636.56219      5279.9682      12.31295       21.326654      20.106963    
     10500   204.81919     -2146.5948      11.410707     -2135.1841     -5114.5281      5295.1485      12.324739      21.347073      20.126214    
     11000   193.82499     -2146.7293      10.798208     -2135.9311      4040.136       5271.9457      12.30671       21.315848      20.096774    
     11500   181.45223     -2146.3441      10.108907     -2136.2352     -2112.5041      5286.8881      12.318326      21.335967      20.115743    
     12000   188.89402     -2146.1692      10.523498     -2135.6457      5108.1989      5264.1236      12.300621      21.3053        20.086829    
     12500   201.89412     -2146.1036      11.247748     -2134.8558      1897.0022      5281.9859      12.314518      21.329371      20.109524    
     13000   196.75147     -2146.4788      10.961245     -2135.5175     -2007.3997      5285.1969      12.317013      21.333692      20.113598    
     13500   187.9015      -2146.6341      10.468203     -2136.1659     -3632.6871      5288.8502      12.31985       21.338606      20.118231    
     14000   202.48651     -2146.365       11.280751     -2135.0843     -4893.5976      5300.2024      12.328658      21.353863      20.132615    
     14500   213.70326     -2146.1751      11.905649     -2134.2695      1788.2965      5275.9581      12.309832      21.321254      20.101871    
     15000   204.64492     -2146.1598      11.400998     -2134.7588      1069.0308      5277.563       12.31108       21.323416      20.103909    
     15500   190.57824     -2146.5697      10.617327     -2135.9524     -7421.1983      5305.4945      12.33276       21.360967      20.139313    
     16000   197.18179     -2146.4698      10.985219     -2135.4846      5261.2597      5258.8559      12.296516      21.298191      20.080127    
     16500   199.9821      -2146.1442      11.141227     -2135.0029     -2395.8238      5295.8575      12.325289      21.348026      20.127112    
     17000   211.3673      -2145.9181      11.77551      -2134.1426     -2546.7433      5283.0903      12.315376      21.330857      20.110925    
     17500   194.80363     -2145.5133      10.852729     -2134.6606     -3935.0596      5298.0744      12.327008      21.351005      20.12992     
     18000   196.48819     -2146.354       10.946578     -2135.4074      3994.5026      5262.2577      12.299167      21.302783      20.084456    
     18500   190.77039     -2146.538       10.628033     -2135.9099     -430.20865      5284.8514      12.316744      21.333227      20.113159    
     19000   207.62296     -2146.3434      11.566908     -2134.7765     -1912.0278      5283.6334      12.315798      21.331588      20.111614    
     19500   198.0954      -2146.1417      11.036117     -2135.1056     -1526.4818      5283.1841      12.315449      21.330983      20.111044    
     20000   198.79942     -2146.6081      11.075339     -2135.5327      4010.6078      5267.1174      12.302952      21.309338      20.090637    
     20500   195.36744     -2146.6364      10.884139     -2135.7522     -3472.0992      5292.0197      12.322311      21.342868      20.122249    
     21000   205.72188     -2146.0175      11.460997     -2134.5565     -1641.0697      5289.439       12.320307      21.339398      20.118977    
     21500   215.79597     -2146.2634      12.022236     -2134.2412      438.20755      5283.7161      12.315862      21.331699      20.111719    
     22000   208.39501     -2146.1752      11.60992      -2134.5653      2250.995       5275.39        12.30939       21.320489      20.101149    
     22500   193.44421     -2147.1408      10.776994     -2136.3638      1213.8653      5274.0799      12.308371      21.318723      20.099485    
     23000   205.71592     -2147.0715      11.460665     -2135.6108     -2628.8619      5277.8711      12.311319      21.32383       20.1043      
     23500   191.73387     -2146.7974      10.681709     -2136.1157     -1249.5864      5281.6645      12.314268      21.328938      20.109116    
     24000   213.96283     -2148.0145      11.920109     -2136.0944      1187.6242      5268.3451      12.303908      21.310994      20.092198    
     24500   192.72674     -2149.3016      10.737023     -2138.5646     -1835.3459      5281.6711      12.314273      21.328947      20.109124    
     25000   207.34596     -2148.3634      11.551476     -2136.8119      4983.3217      5255.3931      12.293817      21.293515      20.075719    
     25500   209.52201     -2148.2224      11.672706     -2136.5497     -2681.929       5282.5999      12.314995      21.330197      20.110303    
     26000   202.9904      -2148.3444      11.308823     -2137.0355     -1056.4636      5283.556       12.315738      21.331484      20.111516    
     26500   199.6568      -2148.7864      11.123104     -2137.6633      4428.9544      5260.9085      12.298116      21.300962      20.082739    
     27000   210.90231     -2147.3875      11.749604     -2135.6379     -3213.5888      5292.5964      12.322758      21.343643      20.12298     
     27500   198.89325     -2148.5884      11.080566     -2137.5078     -1315.2451      5275.7027      12.309633      21.32091       20.101547    
     28000   201.83961     -2148.795       11.244711     -2137.5503      3463.2607      5262.3491      12.299238      21.302906      20.084572    
     28500   205.37452     -2148.5957      11.441645     -2137.1541      1958.1002      5266.4193      12.302409      21.308397      20.089749    
     29000   199.85168     -2147.7116      11.133962     -2136.5777      1120.2059      5272.283       12.306973      21.316302      20.097202    
     29500   206.79285     -2147.5653      11.520662     -2136.0446      4443.0287      5262.5444      12.299391      21.303169      20.084821    
     30000   207.06051     -2148.4784      11.535573     -2136.9429     -1798.4916      5283.7674      12.315902      21.331768      20.111784    
     30500   196.27696     -2148.3584      10.93481      -2137.4236      182.64661      5274.0724      12.308365      21.318713      20.099476    
     31000   202.0239      -2147.9369      11.254978     -2136.6819     -4368.3408      5291.6545      12.322027      21.342377      20.121786    
     31500   211.95145     -2148.2788      11.808053     -2136.4708      4349.0361      5262.1851      12.299111      21.302685      20.084364    
     32000   183.55301     -2148.8703      10.225944     -2138.6443     -505.34124      5275.3955      12.309394      21.320496      20.101156    
     32500   203.44237     -2148.0195      11.334003     -2136.6855     -2398.6436      5283.6369      12.315801      21.331593      20.111619    
     33000   210.17641     -2148.4407      11.709164     -2136.7316     -749.03648      5277.9412      12.311374      21.323925      20.104389    
     33500   185.3693      -2148.3791      10.327132     -2138.0519      1704.5946      5266.7135      12.302638      21.308794      20.090123    
     34000   206.14913     -2148.4926      11.4848       -2137.0078      91.750733      5275.4425      12.309431      21.320559      20.101216    
     34500   208.67195     -2148.6505      11.625349     -2137.0252      435.39181      5268.2662      12.303847      21.310887      20.092097    
     35000   194.67945     -2148.7696      10.845811     -2137.9238     -5287.7127      5293.4689      12.323435      21.344816      20.124086    
     35500   189.01668     -2148.9152      10.530332     -2138.3848      3324.4827      5266.875       12.302763      21.309011      20.090329    
     36000   192.1535      -2148.2404      10.705087     -2137.5353      392.87704      5270.0254      12.305216      21.313259      20.094333    
     36500   195.93044     -2148.0122      10.915505     -2137.0967     -1602.7961      5283.1226      12.315401      21.330901      20.110966    
     37000   197.96721     -2148.532       11.028976     -2137.503      -2639.0771      5286.481       12.31801       21.33542       20.115227    
     37500   194.64471     -2148.8893      10.843875     -2138.0455      500.61678      5270.1905      12.305344      21.313482      20.094543    
     38000   202.06475     -2148.65        11.257254     -2137.3928     -2599.0845      5290.666       12.32126       21.341048      20.120533    
     38500   198.79191     -2148.586       11.07492      -2137.5111     -3094.971       5284.181       12.316224      21.332325      20.112309    
     39000   194.50775     -2148.9         10.836245     -2138.0638      1674.5688      5264.5893      12.300983      21.305928      20.087422    
     39500   183.43304     -2148.3886      10.21926      -2138.1693      4755.6197      5267.141       12.302971      21.30937       20.090667    
     40000   197.90147     -2148.0659      11.025313     -2137.0406     -56.183097      5274.2728      12.308521      21.318984      20.09973     
     40500   206.51926     -2147.8542      11.50542      -2136.3488      1173.9505      5269.4013      12.30473       21.312418      20.09354     
     41000   199.60554     -2148.0088      11.120248     -2136.8886     -220.98262      5272.3895      12.307056      21.316446      20.097338    
     41500   212.96288     -2148.6214      11.864401     -2136.757      -4012.628       5288.2271      12.319366      21.337768      20.117441    
     42000   216.79453     -2148.3256      12.077867     -2136.2478      4245.8017      5260.7563      12.297997      21.300756      20.082546    
     42500   192.87806     -2148.5242      10.745453     -2137.7788     -5860.8461      5300.6038      12.32897       21.354402      20.133123    
     43000   205.11858     -2148.3525      11.427386     -2136.9251     -1404.5271      5270.1223      12.305291      21.31339       20.094457    
     43500   199.81933     -2148.1263      11.132159     -2136.9941      2904.61        5272.0132      12.306763      21.315938      20.09686     
     44000   194.95987     -2148.3301      10.861433     -2137.4687      512.99181      5274.2034      12.308467      21.31889       20.099642    
     44500   198.34164     -2149.4407      11.049835     -2138.3909     -511.07076      5277.1082      12.310726      21.322803      20.103331    
     45000   195.58809     -2148.6104      10.896432     -2137.7139     -5064.4897      5287.2777      12.318629      21.336491      20.116237    
     45500   210.35968     -2148.8064      11.719374     -2137.0871     -140.98837      5275.126       12.309184      21.320133      20.100814    
     46000   198.93629     -2148.3221      11.082964     -2137.2392     -469.17337      5283.1236      12.315402      21.330902      20.110967    
     46500   193.17436     -2149.2523      10.761961     -2138.4904     -4043.684       5288.6195      12.319671      21.338296      20.117938    
     47000   198.14066     -2147.7279      11.038639     -2136.6893     -2188.1002      5271.5006      12.306364      21.315248      20.096208    
     47500   192.72235     -2148.3172      10.736779     -2137.5805      3452.9634      5264.2469      12.300717      21.305466      20.086986    
     48000   202.72251     -2148.125       11.293898     -2136.8311     -4544.7008      5290.3162      12.320988      21.340578      20.12009     
     48500   211.50444     -2147.9806      11.78315      -2136.1975     -616.04386      5282.9997      12.315306      21.330735      20.11081     
     49000   208.91316     -2148.2591      11.638786     -2136.6203      155.70113      5274.728       12.308875      21.319597      20.100309    
     49500   207.5735      -2147.6515      11.564153     -2136.0873     -1983.1389      5284.0191      12.316098      21.332107      20.112103    
     50000   200.01924     -2148.8432      11.143296     -2137.6999      1684.7563      5263.789       12.30036       21.304849      20.086404    
Loop time of 586.813 on 8 procs for 50000 steps with 432 atoms

Performance: 7.362 ns/day, 3.260 hours/ns, 85.206 timesteps/s, 36.809 katom-step/s
93.2% CPU use with 1 MPI tasks x 8 OpenMP threads

MPI task timing breakdown:
Section |  min time  |  avg time  |  max time  |%varavg| %total
---------------------------------------------------------------
Pair    | 539.55     | 539.55     | 539.55     |   0.0 | 91.95
Neigh   | 0.001764   | 0.001764   | 0.001764   |   0.0 |  0.00
Comm    | 0.36286    | 0.36286    | 0.36286    |   0.0 |  0.06
Output  | 0.005516   | 0.005516   | 0.005516   |   0.0 |  0.00
Modify  | 46.821     | 46.821     | 46.821     |   0.0 |  7.98
Other   |            | 0.06841    |            |       |  0.01

Nlocal:            432 ave         432 max         432 min
Histogram: 1 0 0 0 0 0 0 0 0 0
Nghost:           2706 ave        2706 max        2706 min
Histogram: 1 0 0 0 0 0 0 0 0 0
Neighs:          37335 ave       37335 max       37335 min
Histogram: 1 0 0 0 0 0 0 0 0 0
FullNghs:        74670 ave       74670 max       74670 min
Histogram: 1 0 0 0 0 0 0 0 0 0

Total # of neighbors = 74670
Ave neighs/atom = 172.84722
Neighbor list builds = 2
Dangerous builds = 0

=== FINAL RESULTS: DHCP at 200 K ===
Atoms: 432 | PE/atom: -4.97293092809194 eV/atom
WARNING: Detected non-ASCII characters in input. Will try to continue by replacing with ASCII equivalents where known. (src/input.cpp:479)
Volume: 5263.78902832367 …³ | Area: 262.057311565987 ²
==========================================
DHCP 200 432 -4.97293092809194 5263.78902832367 12.3003601305805 21.3048487023135 20.0864039887636 262.057311565987
Simulation complete!
Total wall time: 0:13:45
