# FCC structure - OPTIMIZED (smaller supercell)
# Composition: {'Al': 0.0, 'Fe': 0.25, 'Ni': 0.75}
# Generated for Assignment 2 - MM309 (Optimized)

864 atoms
3 atom types

0.0 21.24000000 xlo xhi
0.0 21.24000000 ylo yhi
0.0 21.24000000 zlo zhi

Masses

1 26.9815  # Al
2 55.8450  # Fe
3 58.6934  # Ni

Atoms # atomic

1 3 0.00000000 0.00000000 0.00000000
2 3 1.77000000 1.77000000 0.00000000
3 3 1.77000000 0.00000000 1.77000000
4 3 0.00000000 1.77000000 1.77000000
5 2 0.00000000 0.00000000 3.54000000
6 3 1.77000000 1.77000000 3.54000000
7 3 1.77000000 0.00000000 5.31000000
8 3 0.00000000 1.77000000 5.31000000
9 2 0.00000000 0.00000000 7.08000000
10 3 1.77000000 1.77000000 7.08000000
11 3 1.77000000 0.00000000 8.85000000
12 2 0.00000000 1.77000000 8.85000000
13 3 0.00000000 0.00000000 10.62000000
14 3 1.77000000 1.77000000 10.62000000
15 3 1.77000000 0.00000000 12.39000000
16 3 0.00000000 1.77000000 12.39000000
17 3 0.00000000 0.00000000 14.16000000
18 3 1.77000000 1.77000000 14.16000000
19 2 1.77000000 0.00000000 15.93000000
20 3 0.00000000 1.77000000 15.93000000
21 2 0.00000000 0.00000000 17.70000000
22 2 1.77000000 1.77000000 17.70000000
23 3 1.77000000 0.00000000 19.47000000
24 2 0.00000000 1.77000000 19.47000000
25 3 0.00000000 3.54000000 0.00000000
26 3 1.77000000 5.31000000 0.00000000
27 3 1.77000000 3.54000000 1.77000000
28 3 0.00000000 5.31000000 1.77000000
29 3 0.00000000 3.54000000 3.54000000
30 2 1.77000000 5.31000000 3.54000000
31 2 1.77000000 3.54000000 5.31000000
32 3 0.00000000 5.31000000 5.31000000
33 3 0.00000000 3.54000000 7.08000000
34 3 1.77000000 5.31000000 7.08000000
35 3 1.77000000 3.54000000 8.85000000
36 3 0.00000000 5.31000000 8.85000000
37 3 0.00000000 3.54000000 10.62000000
38 3 1.77000000 5.31000000 10.62000000
39 3 1.77000000 3.54000000 12.39000000
40 3 0.00000000 5.31000000 12.39000000
41 3 0.00000000 3.54000000 14.16000000
42 3 1.77000000 5.31000000 14.16000000
43 2 1.77000000 3.54000000 15.93000000
44 3 0.00000000 5.31000000 15.93000000
45 3 0.00000000 3.54000000 17.70000000
46 2 1.77000000 5.31000000 17.70000000
47 3 1.77000000 3.54000000 19.47000000
48 3 0.00000000 5.31000000 19.47000000
49 3 0.00000000 7.08000000 0.00000000
50 3 1.77000000 8.85000000 0.00000000
51 3 1.77000000 7.08000000 1.77000000
52 3 0.00000000 8.85000000 1.77000000
53 2 0.00000000 7.08000000 3.54000000
54 3 1.77000000 8.85000000 3.54000000
55 2 1.77000000 7.08000000 5.31000000
56 3 0.00000000 8.85000000 5.31000000
57 3 0.00000000 7.08000000 7.08000000
58 3 1.77000000 8.85000000 7.08000000
59 3 1.77000000 7.08000000 8.85000000
60 3 0.00000000 8.85000000 8.85000000
61 3 0.00000000 7.08000000 10.62000000
62 3 1.77000000 8.85000000 10.62000000
63 3 1.77000000 7.08000000 12.39000000
64 3 0.00000000 8.85000000 12.39000000
65 2 0.00000000 7.08000000 14.16000000
66 3 1.77000000 8.85000000 14.16000000
67 3 1.77000000 7.08000000 15.93000000
68 3 0.00000000 8.85000000 15.93000000
69 3 0.00000000 7.08000000 17.70000000
70 2 1.77000000 8.85000000 17.70000000
71 3 1.77000000 7.08000000 19.47000000
72 3 0.00000000 8.85000000 19.47000000
73 2 0.00000000 10.62000000 0.00000000
74 3 1.77000000 12.39000000 0.00000000
75 3 1.77000000 10.62000000 1.77000000
76 3 0.00000000 12.39000000 1.77000000
77 3 0.00000000 10.62000000 3.54000000
78 3 1.77000000 12.39000000 3.54000000
79 2 1.77000000 10.62000000 5.31000000
80 3 0.00000000 12.39000000 5.31000000
81 2 0.00000000 10.62000000 7.08000000
82 3 1.77000000 12.39000000 7.08000000
83 3 1.77000000 10.62000000 8.85000000
84 3 0.00000000 12.39000000 8.85000000
85 3 0.00000000 10.62000000 10.62000000
86 3 1.77000000 12.39000000 10.62000000
87 3 1.77000000 10.62000000 12.39000000
88 3 0.00000000 12.39000000 12.39000000
89 2 0.00000000 10.62000000 14.16000000
90 2 1.77000000 12.39000000 14.16000000
91 3 1.77000000 10.62000000 15.93000000
92 3 0.00000000 12.39000000 15.93000000
93 2 0.00000000 10.62000000 17.70000000
94 2 1.77000000 12.39000000 17.70000000
95 3 1.77000000 10.62000000 19.47000000
96 2 0.00000000 12.39000000 19.47000000
97 3 0.00000000 14.16000000 0.00000000
98 3 1.77000000 15.93000000 0.00000000
99 3 1.77000000 14.16000000 1.77000000
100 2 0.00000000 15.93000000 1.77000000
101 3 0.00000000 14.16000000 3.54000000
102 3 1.77000000 15.93000000 3.54000000
103 3 1.77000000 14.16000000 5.31000000
104 3 0.00000000 15.93000000 5.31000000
105 3 0.00000000 14.16000000 7.08000000
106 3 1.77000000 15.93000000 7.08000000
107 3 1.77000000 14.16000000 8.85000000
108 3 0.00000000 15.93000000 8.85000000
109 2 0.00000000 14.16000000 10.62000000
110 3 1.77000000 15.93000000 10.62000000
111 2 1.77000000 14.16000000 12.39000000
112 3 0.00000000 15.93000000 12.39000000
113 3 0.00000000 14.16000000 14.16000000
114 3 1.77000000 15.93000000 14.16000000
115 3 1.77000000 14.16000000 15.93000000
116 3 0.00000000 15.93000000 15.93000000
117 3 0.00000000 14.16000000 17.70000000
118 3 1.77000000 15.93000000 17.70000000
119 3 1.77000000 14.16000000 19.47000000
120 2 0.00000000 15.93000000 19.47000000
121 3 0.00000000 17.70000000 0.00000000
122 3 1.77000000 19.47000000 0.00000000
123 2 1.77000000 17.70000000 1.77000000
124 2 0.00000000 19.47000000 1.77000000
125 2 0.00000000 17.70000000 3.54000000
126 3 1.77000000 19.47000000 3.54000000
127 3 1.77000000 17.70000000 5.31000000
128 3 0.00000000 19.47000000 5.31000000
129 3 0.00000000 17.70000000 7.08000000
130 3 1.77000000 19.47000000 7.08000000
131 3 1.77000000 17.70000000 8.85000000
132 3 0.00000000 19.47000000 8.85000000
133 2 0.00000000 17.70000000 10.62000000
134 3 1.77000000 19.47000000 10.62000000
135 3 1.77000000 17.70000000 12.39000000
136 2 0.00000000 19.47000000 12.39000000
137 3 0.00000000 17.70000000 14.16000000
138 2 1.77000000 19.47000000 14.16000000
139 3 1.77000000 17.70000000 15.93000000
140 3 0.00000000 19.47000000 15.93000000
141 3 0.00000000 17.70000000 17.70000000
142 2 1.77000000 19.47000000 17.70000000
143 3 1.77000000 17.70000000 19.47000000
144 3 0.00000000 19.47000000 19.47000000
145 3 3.54000000 0.00000000 0.00000000
146 3 5.31000000 1.77000000 0.00000000
147 2 5.31000000 0.00000000 1.77000000
148 3 3.54000000 1.77000000 1.77000000
149 3 3.54000000 0.00000000 3.54000000
150 3 5.31000000 1.77000000 3.54000000
151 2 5.31000000 0.00000000 5.31000000
152 3 3.54000000 1.77000000 5.31000000
153 3 3.54000000 0.00000000 7.08000000
154 3 5.31000000 1.77000000 7.08000000
155 3 5.31000000 0.00000000 8.85000000
156 2 3.54000000 1.77000000 8.85000000
157 2 3.54000000 0.00000000 10.62000000
158 3 5.31000000 1.77000000 10.62000000
159 3 5.31000000 0.00000000 12.39000000
160 2 3.54000000 1.77000000 12.39000000
161 2 3.54000000 0.00000000 14.16000000
162 2 5.31000000 1.77000000 14.16000000
163 3 5.31000000 0.00000000 15.93000000
164 2 3.54000000 1.77000000 15.93000000
165 3 3.54000000 0.00000000 17.70000000
166 2 5.31000000 1.77000000 17.70000000
167 3 5.31000000 0.00000000 19.47000000
168 3 3.54000000 1.77000000 19.47000000
169 3 3.54000000 3.54000000 0.00000000
170 3 5.31000000 5.31000000 0.00000000
171 3 5.31000000 3.54000000 1.77000000
172 3 3.54000000 5.31000000 1.77000000
173 3 3.54000000 3.54000000 3.54000000
174 2 5.31000000 5.31000000 3.54000000
175 2 5.31000000 3.54000000 5.31000000
176 2 3.54000000 5.31000000 5.31000000
177 3 3.54000000 3.54000000 7.08000000
178 3 5.31000000 5.31000000 7.08000000
179 2 5.31000000 3.54000000 8.85000000
180 3 3.54000000 5.31000000 8.85000000
181 3 3.54000000 3.54000000 10.62000000
182 3 5.31000000 5.31000000 10.62000000
183 3 5.31000000 3.54000000 12.39000000
184 2 3.54000000 5.31000000 12.39000000
185 3 3.54000000 3.54000000 14.16000000
186 2 5.31000000 5.31000000 14.16000000
187 3 5.31000000 3.54000000 15.93000000
188 3 3.54000000 5.31000000 15.93000000
189 2 3.54000000 3.54000000 17.70000000
190 3 5.31000000 5.31000000 17.70000000
191 3 5.31000000 3.54000000 19.47000000
192 3 3.54000000 5.31000000 19.47000000
193 2 3.54000000 7.08000000 0.00000000
194 2 5.31000000 8.85000000 0.00000000
195 3 5.31000000 7.08000000 1.77000000
196 3 3.54000000 8.85000000 1.77000000
197 3 3.54000000 7.08000000 3.54000000
198 3 5.31000000 8.85000000 3.54000000
199 3 5.31000000 7.08000000 5.31000000
200 2 3.54000000 8.85000000 5.31000000
201 3 3.54000000 7.08000000 7.08000000
202 3 5.31000000 8.85000000 7.08000000
203 3 5.31000000 7.08000000 8.85000000
204 3 3.54000000 8.85000000 8.85000000
205 3 3.54000000 7.08000000 10.62000000
206 2 5.31000000 8.85000000 10.62000000
207 3 5.31000000 7.08000000 12.39000000
208 3 3.54000000 8.85000000 12.39000000
209 3 3.54000000 7.08000000 14.16000000
210 3 5.31000000 8.85000000 14.16000000
211 3 5.31000000 7.08000000 15.93000000
212 3 3.54000000 8.85000000 15.93000000
213 3 3.54000000 7.08000000 17.70000000
214 3 5.31000000 8.85000000 17.70000000
215 3 5.31000000 7.08000000 19.47000000
216 3 3.54000000 8.85000000 19.47000000
217 3 3.54000000 10.62000000 0.00000000
218 3 5.31000000 12.39000000 0.00000000
219 3 5.31000000 10.62000000 1.77000000
220 2 3.54000000 12.39000000 1.77000000
221 3 3.54000000 10.62000000 3.54000000
222 2 5.31000000 12.39000000 3.54000000
223 2 5.31000000 10.62000000 5.31000000
224 3 3.54000000 12.39000000 5.31000000
225 3 3.54000000 10.62000000 7.08000000
226 2 5.31000000 12.39000000 7.08000000
227 3 5.31000000 10.62000000 8.85000000
228 3 3.54000000 12.39000000 8.85000000
229 2 3.54000000 10.62000000 10.62000000
230 3 5.31000000 12.39000000 10.62000000
231 3 5.31000000 10.62000000 12.39000000
232 3 3.54000000 12.39000000 12.39000000
233 3 3.54000000 10.62000000 14.16000000
234 3 5.31000000 12.39000000 14.16000000
235 3 5.31000000 10.62000000 15.93000000
236 3 3.54000000 12.39000000 15.93000000
237 3 3.54000000 10.62000000 17.70000000
238 3 5.31000000 12.39000000 17.70000000
239 3 5.31000000 10.62000000 19.47000000
240 3 3.54000000 12.39000000 19.47000000
241 3 3.54000000 14.16000000 0.00000000
242 2 5.31000000 15.93000000 0.00000000
243 3 5.31000000 14.16000000 1.77000000
244 3 3.54000000 15.93000000 1.77000000
245 3 3.54000000 14.16000000 3.54000000
246 3 5.31000000 15.93000000 3.54000000
247 3 5.31000000 14.16000000 5.31000000
248 3 3.54000000 15.93000000 5.31000000
249 2 3.54000000 14.16000000 7.08000000
250 2 5.31000000 15.93000000 7.08000000
251 3 5.31000000 14.16000000 8.85000000
252 3 3.54000000 15.93000000 8.85000000
253 2 3.54000000 14.16000000 10.62000000
254 3 5.31000000 15.93000000 10.62000000
255 2 5.31000000 14.16000000 12.39000000
256 3 3.54000000 15.93000000 12.39000000
257 2 3.54000000 14.16000000 14.16000000
258 3 5.31000000 15.93000000 14.16000000
259 2 5.31000000 14.16000000 15.93000000
260 3 3.54000000 15.93000000 15.93000000
261 3 3.54000000 14.16000000 17.70000000
262 3 5.31000000 15.93000000 17.70000000
263 3 5.31000000 14.16000000 19.47000000
264 3 3.54000000 15.93000000 19.47000000
265 3 3.54000000 17.70000000 0.00000000
266 3 5.31000000 19.47000000 0.00000000
267 3 5.31000000 17.70000000 1.77000000
268 3 3.54000000 19.47000000 1.77000000
269 3 3.54000000 17.70000000 3.54000000
270 3 5.31000000 19.47000000 3.54000000
271 3 5.31000000 17.70000000 5.31000000
272 2 3.54000000 19.47000000 5.31000000
273 3 3.54000000 17.70000000 7.08000000
274 3 5.31000000 19.47000000 7.08000000
275 3 5.31000000 17.70000000 8.85000000
276 3 3.54000000 19.47000000 8.85000000
277 3 3.54000000 17.70000000 10.62000000
278 3 5.31000000 19.47000000 10.62000000
279 3 5.31000000 17.70000000 12.39000000
280 2 3.54000000 19.47000000 12.39000000
281 3 3.54000000 17.70000000 14.16000000
282 3 5.31000000 19.47000000 14.16000000
283 3 5.31000000 17.70000000 15.93000000
284 3 3.54000000 19.47000000 15.93000000
285 3 3.54000000 17.70000000 17.70000000
286 3 5.31000000 19.47000000 17.70000000
287 3 5.31000000 17.70000000 19.47000000
288 2 3.54000000 19.47000000 19.47000000
289 3 7.08000000 0.00000000 0.00000000
290 3 8.85000000 1.77000000 0.00000000
291 3 8.85000000 0.00000000 1.77000000
292 2 7.08000000 1.77000000 1.77000000
293 3 7.08000000 0.00000000 3.54000000
294 2 8.85000000 1.77000000 3.54000000
295 3 8.85000000 0.00000000 5.31000000
296 3 7.08000000 1.77000000 5.31000000
297 3 7.08000000 0.00000000 7.08000000
298 3 8.85000000 1.77000000 7.08000000
299 3 8.85000000 0.00000000 8.85000000
300 3 7.08000000 1.77000000 8.85000000
301 3 7.08000000 0.00000000 10.62000000
302 3 8.85000000 1.77000000 10.62000000
303 2 8.85000000 0.00000000 12.39000000
304 3 7.08000000 1.77000000 12.39000000
305 3 7.08000000 0.00000000 14.16000000
306 3 8.85000000 1.77000000 14.16000000
307 3 8.85000000 0.00000000 15.93000000
308 2 7.08000000 1.77000000 15.93000000
309 3 7.08000000 0.00000000 17.70000000
310 3 8.85000000 1.77000000 17.70000000
311 3 8.85000000 0.00000000 19.47000000
312 3 7.08000000 1.77000000 19.47000000
313 3 7.08000000 3.54000000 0.00000000
314 2 8.85000000 5.31000000 0.00000000
315 3 8.85000000 3.54000000 1.77000000
316 2 7.08000000 5.31000000 1.77000000
317 3 7.08000000 3.54000000 3.54000000
318 2 8.85000000 5.31000000 3.54000000
319 3 8.85000000 3.54000000 5.31000000
320 3 7.08000000 5.31000000 5.31000000
321 3 7.08000000 3.54000000 7.08000000
322 3 8.85000000 5.31000000 7.08000000
323 3 8.85000000 3.54000000 8.85000000
324 3 7.08000000 5.31000000 8.85000000
325 3 7.08000000 3.54000000 10.62000000
326 2 8.85000000 5.31000000 10.62000000
327 3 8.85000000 3.54000000 12.39000000
328 3 7.08000000 5.31000000 12.39000000
329 3 7.08000000 3.54000000 14.16000000
330 2 8.85000000 5.31000000 14.16000000
331 3 8.85000000 3.54000000 15.93000000
332 3 7.08000000 5.31000000 15.93000000
333 3 7.08000000 3.54000000 17.70000000
334 2 8.85000000 5.31000000 17.70000000
335 3 8.85000000 3.54000000 19.47000000
336 3 7.08000000 5.31000000 19.47000000
337 3 7.08000000 7.08000000 0.00000000
338 2 8.85000000 8.85000000 0.00000000
339 3 8.85000000 7.08000000 1.77000000
340 2 7.08000000 8.85000000 1.77000000
341 3 7.08000000 7.08000000 3.54000000
342 2 8.85000000 8.85000000 3.54000000
343 3 8.85000000 7.08000000 5.31000000
344 2 7.08000000 8.85000000 5.31000000
345 3 7.08000000 7.08000000 7.08000000
346 3 8.85000000 8.85000000 7.08000000
347 2 8.85000000 7.08000000 8.85000000
348 3 7.08000000 8.85000000 8.85000000
349 3 7.08000000 7.08000000 10.62000000
350 3 8.85000000 8.85000000 10.62000000
351 3 8.85000000 7.08000000 12.39000000
352 3 7.08000000 8.85000000 12.39000000
353 3 7.08000000 7.08000000 14.16000000
354 2 8.85000000 8.85000000 14.16000000
355 2 8.85000000 7.08000000 15.93000000
356 3 7.08000000 8.85000000 15.93000000
357 3 7.08000000 7.08000000 17.70000000
358 3 8.85000000 8.85000000 17.70000000
359 3 8.85000000 7.08000000 19.47000000
360 2 7.08000000 8.85000000 19.47000000
361 3 7.08000000 10.62000000 0.00000000
362 3 8.85000000 12.39000000 0.00000000
363 3 8.85000000 10.62000000 1.77000000
364 2 7.08000000 12.39000000 1.77000000
365 3 7.08000000 10.62000000 3.54000000
366 3 8.85000000 12.39000000 3.54000000
367 3 8.85000000 10.62000000 5.31000000
368 2 7.08000000 12.39000000 5.31000000
369 2 7.08000000 10.62000000 7.08000000
370 3 8.85000000 12.39000000 7.08000000
371 3 8.85000000 10.62000000 8.85000000
372 2 7.08000000 12.39000000 8.85000000
373 3 7.08000000 10.62000000 10.62000000
374 3 8.85000000 12.39000000 10.62000000
375 3 8.85000000 10.62000000 12.39000000
376 3 7.08000000 12.39000000 12.39000000
377 3 7.08000000 10.62000000 14.16000000
378 3 8.85000000 12.39000000 14.16000000
379 3 8.85000000 10.62000000 15.93000000
380 3 7.08000000 12.39000000 15.93000000
381 3 7.08000000 10.62000000 17.70000000
382 3 8.85000000 12.39000000 17.70000000
383 3 8.85000000 10.62000000 19.47000000
384 3 7.08000000 12.39000000 19.47000000
385 3 7.08000000 14.16000000 0.00000000
386 2 8.85000000 15.93000000 0.00000000
387 3 8.85000000 14.16000000 1.77000000
388 3 7.08000000 15.93000000 1.77000000
389 2 7.08000000 14.16000000 3.54000000
390 2 8.85000000 15.93000000 3.54000000
391 3 8.85000000 14.16000000 5.31000000
392 3 7.08000000 15.93000000 5.31000000
393 3 7.08000000 14.16000000 7.08000000
394 2 8.85000000 15.93000000 7.08000000
395 3 8.85000000 14.16000000 8.85000000
396 3 7.08000000 15.93000000 8.85000000
397 3 7.08000000 14.16000000 10.62000000
398 3 8.85000000 15.93000000 10.62000000
399 3 8.85000000 14.16000000 12.39000000
400 3 7.08000000 15.93000000 12.39000000
401 3 7.08000000 14.16000000 14.16000000
402 2 8.85000000 15.93000000 14.16000000
403 3 8.85000000 14.16000000 15.93000000
404 3 7.08000000 15.93000000 15.93000000
405 2 7.08000000 14.16000000 17.70000000
406 3 8.85000000 15.93000000 17.70000000
407 3 8.85000000 14.16000000 19.47000000
408 3 7.08000000 15.93000000 19.47000000
409 3 7.08000000 17.70000000 0.00000000
410 3 8.85000000 19.47000000 0.00000000
411 3 8.85000000 17.70000000 1.77000000
412 3 7.08000000 19.47000000 1.77000000
413 2 7.08000000 17.70000000 3.54000000
414 2 8.85000000 19.47000000 3.54000000
415 2 8.85000000 17.70000000 5.31000000
416 3 7.08000000 19.47000000 5.31000000
417 3 7.08000000 17.70000000 7.08000000
418 2 8.85000000 19.47000000 7.08000000
419 3 8.85000000 17.70000000 8.85000000
420 3 7.08000000 19.47000000 8.85000000
421 3 7.08000000 17.70000000 10.62000000
422 3 8.85000000 19.47000000 10.62000000
423 3 8.85000000 17.70000000 12.39000000
424 2 7.08000000 19.47000000 12.39000000
425 3 7.08000000 17.70000000 14.16000000
426 3 8.85000000 19.47000000 14.16000000
427 3 8.85000000 17.70000000 15.93000000
428 3 7.08000000 19.47000000 15.93000000
429 3 7.08000000 17.70000000 17.70000000
430 3 8.85000000 19.47000000 17.70000000
431 3 8.85000000 17.70000000 19.47000000
432 3 7.08000000 19.47000000 19.47000000
433 3 10.62000000 0.00000000 0.00000000
434 3 12.39000000 1.77000000 0.00000000
435 2 12.39000000 0.00000000 1.77000000
436 3 10.62000000 1.77000000 1.77000000
437 3 10.62000000 0.00000000 3.54000000
438 3 12.39000000 1.77000000 3.54000000
439 3 12.39000000 0.00000000 5.31000000
440 3 10.62000000 1.77000000 5.31000000
441 2 10.62000000 0.00000000 7.08000000
442 3 12.39000000 1.77000000 7.08000000
443 2 12.39000000 0.00000000 8.85000000
444 2 10.62000000 1.77000000 8.85000000
445 3 10.62000000 0.00000000 10.62000000
446 3 12.39000000 1.77000000 10.62000000
447 2 12.39000000 0.00000000 12.39000000
448 3 10.62000000 1.77000000 12.39000000
449 3 10.62000000 0.00000000 14.16000000
450 2 12.39000000 1.77000000 14.16000000
451 3 12.39000000 0.00000000 15.93000000
452 2 10.62000000 1.77000000 15.93000000
453 3 10.62000000 0.00000000 17.70000000
454 2 12.39000000 1.77000000 17.70000000
455 3 12.39000000 0.00000000 19.47000000
456 3 10.62000000 1.77000000 19.47000000
457 3 10.62000000 3.54000000 0.00000000
458 2 12.39000000 5.31000000 0.00000000
459 3 12.39000000 3.54000000 1.77000000
460 3 10.62000000 5.31000000 1.77000000
461 3 10.62000000 3.54000000 3.54000000
462 3 12.39000000 5.31000000 3.54000000
463 3 12.39000000 3.54000000 5.31000000
464 2 10.62000000 5.31000000 5.31000000
465 3 10.62000000 3.54000000 7.08000000
466 3 12.39000000 5.31000000 7.08000000
467 3 12.39000000 3.54000000 8.85000000
468 2 10.62000000 5.31000000 8.85000000
469 2 10.62000000 3.54000000 10.62000000
470 2 12.39000000 5.31000000 10.62000000
471 3 12.39000000 3.54000000 12.39000000
472 3 10.62000000 5.31000000 12.39000000
473 2 10.62000000 3.54000000 14.16000000
474 3 12.39000000 5.31000000 14.16000000
475 3 12.39000000 3.54000000 15.93000000
476 3 10.62000000 5.31000000 15.93000000
477 3 10.62000000 3.54000000 17.70000000
478 3 12.39000000 5.31000000 17.70000000
479 2 12.39000000 3.54000000 19.47000000
480 3 10.62000000 5.31000000 19.47000000
481 2 10.62000000 7.08000000 0.00000000
482 2 12.39000000 8.85000000 0.00000000
483 3 12.39000000 7.08000000 1.77000000
484 3 10.62000000 8.85000000 1.77000000
485 2 10.62000000 7.08000000 3.54000000
486 3 12.39000000 8.85000000 3.54000000
487 2 12.39000000 7.08000000 5.31000000
488 3 10.62000000 8.85000000 5.31000000
489 2 10.62000000 7.08000000 7.08000000
490 2 12.39000000 8.85000000 7.08000000
491 2 12.39000000 7.08000000 8.85000000
492 3 10.62000000 8.85000000 8.85000000
493 2 10.62000000 7.08000000 10.62000000
494 3 12.39000000 8.85000000 10.62000000
495 3 12.39000000 7.08000000 12.39000000
496 2 10.62000000 8.85000000 12.39000000
497 3 10.62000000 7.08000000 14.16000000
498 2 12.39000000 8.85000000 14.16000000
499 3 12.39000000 7.08000000 15.93000000
500 3 10.62000000 8.85000000 15.93000000
501 3 10.62000000 7.08000000 17.70000000
502 3 12.39000000 8.85000000 17.70000000
503 2 12.39000000 7.08000000 19.47000000
504 3 10.62000000 8.85000000 19.47000000
505 3 10.62000000 10.62000000 0.00000000
506 2 12.39000000 12.39000000 0.00000000
507 3 12.39000000 10.62000000 1.77000000
508 3 10.62000000 12.39000000 1.77000000
509 3 10.62000000 10.62000000 3.54000000
510 3 12.39000000 12.39000000 3.54000000
511 3 12.39000000 10.62000000 5.31000000
512 3 10.62000000 12.39000000 5.31000000
513 3 10.62000000 10.62000000 7.08000000
514 3 12.39000000 12.39000000 7.08000000
515 3 12.39000000 10.62000000 8.85000000
516 3 10.62000000 12.39000000 8.85000000
517 3 10.62000000 10.62000000 10.62000000
518 3 12.39000000 12.39000000 10.62000000
519 2 12.39000000 10.62000000 12.39000000
520 3 10.62000000 12.39000000 12.39000000
521 3 10.62000000 10.62000000 14.16000000
522 3 12.39000000 12.39000000 14.16000000
523 3 12.39000000 10.62000000 15.93000000
524 3 10.62000000 12.39000000 15.93000000
525 2 10.62000000 10.62000000 17.70000000
526 2 12.39000000 12.39000000 17.70000000
527 3 12.39000000 10.62000000 19.47000000
528 3 10.62000000 12.39000000 19.47000000
529 3 10.62000000 14.16000000 0.00000000
530 2 12.39000000 15.93000000 0.00000000
531 2 12.39000000 14.16000000 1.77000000
532 2 10.62000000 15.93000000 1.77000000
533 3 10.62000000 14.16000000 3.54000000
534 3 12.39000000 15.93000000 3.54000000
535 3 12.39000000 14.16000000 5.31000000
536 3 10.62000000 15.93000000 5.31000000
537 2 10.62000000 14.16000000 7.08000000
538 3 12.39000000 15.93000000 7.08000000
539 3 12.39000000 14.16000000 8.85000000
540 2 10.62000000 15.93000000 8.85000000
541 3 10.62000000 14.16000000 10.62000000
542 3 12.39000000 15.93000000 10.62000000
543 3 12.39000000 14.16000000 12.39000000
544 3 10.62000000 15.93000000 12.39000000
545 3 10.62000000 14.16000000 14.16000000
546 3 12.39000000 15.93000000 14.16000000
547 3 12.39000000 14.16000000 15.93000000
548 3 10.62000000 15.93000000 15.93000000
549 3 10.62000000 14.16000000 17.70000000
550 3 12.39000000 15.93000000 17.70000000
551 3 12.39000000 14.16000000 19.47000000
552 3 10.62000000 15.93000000 19.47000000
553 3 10.62000000 17.70000000 0.00000000
554 3 12.39000000 19.47000000 0.00000000
555 3 12.39000000 17.70000000 1.77000000
556 3 10.62000000 19.47000000 1.77000000
557 2 10.62000000 17.70000000 3.54000000
558 2 12.39000000 19.47000000 3.54000000
559 3 12.39000000 17.70000000 5.31000000
560 3 10.62000000 19.47000000 5.31000000
561 2 10.62000000 17.70000000 7.08000000
562 2 12.39000000 19.47000000 7.08000000
563 2 12.39000000 17.70000000 8.85000000
564 3 10.62000000 19.47000000 8.85000000
565 3 10.62000000 17.70000000 10.62000000
566 2 12.39000000 19.47000000 10.62000000
567 3 12.39000000 17.70000000 12.39000000
568 3 10.62000000 19.47000000 12.39000000
569 3 10.62000000 17.70000000 14.16000000
570 3 12.39000000 19.47000000 14.16000000
571 3 12.39000000 17.70000000 15.93000000
572 3 10.62000000 19.47000000 15.93000000
573 2 10.62000000 17.70000000 17.70000000
574 2 12.39000000 19.47000000 17.70000000
575 3 12.39000000 17.70000000 19.47000000
576 3 10.62000000 19.47000000 19.47000000
577 3 14.16000000 0.00000000 0.00000000
578 2 15.93000000 1.77000000 0.00000000
579 3 15.93000000 0.00000000 1.77000000
580 3 14.16000000 1.77000000 1.77000000
581 3 14.16000000 0.00000000 3.54000000
582 3 15.93000000 1.77000000 3.54000000
583 3 15.93000000 0.00000000 5.31000000
584 3 14.16000000 1.77000000 5.31000000
585 2 14.16000000 0.00000000 7.08000000
586 3 15.93000000 1.77000000 7.08000000
587 3 15.93000000 0.00000000 8.85000000
588 3 14.16000000 1.77000000 8.85000000
589 2 14.16000000 0.00000000 10.62000000
590 3 15.93000000 1.77000000 10.62000000
591 3 15.93000000 0.00000000 12.39000000
592 3 14.16000000 1.77000000 12.39000000
593 3 14.16000000 0.00000000 14.16000000
594 2 15.93000000 1.77000000 14.16000000
595 2 15.93000000 0.00000000 15.93000000
596 3 14.16000000 1.77000000 15.93000000
597 2 14.16000000 0.00000000 17.70000000
598 3 15.93000000 1.77000000 17.70000000
599 3 15.93000000 0.00000000 19.47000000
600 2 14.16000000 1.77000000 19.47000000
601 3 14.16000000 3.54000000 0.00000000
602 3 15.93000000 5.31000000 0.00000000
603 2 15.93000000 3.54000000 1.77000000
604 2 14.16000000 5.31000000 1.77000000
605 3 14.16000000 3.54000000 3.54000000
606 3 15.93000000 5.31000000 3.54000000
607 3 15.93000000 3.54000000 5.31000000
608 3 14.16000000 5.31000000 5.31000000
609 3 14.16000000 3.54000000 7.08000000
610 3 15.93000000 5.31000000 7.08000000
611 3 15.93000000 3.54000000 8.85000000
612 3 14.16000000 5.31000000 8.85000000
613 3 14.16000000 3.54000000 10.62000000
614 3 15.93000000 5.31000000 10.62000000
615 3 15.93000000 3.54000000 12.39000000
616 3 14.16000000 5.31000000 12.39000000
617 3 14.16000000 3.54000000 14.16000000
618 3 15.93000000 5.31000000 14.16000000
619 3 15.93000000 3.54000000 15.93000000
620 3 14.16000000 5.31000000 15.93000000
621 2 14.16000000 3.54000000 17.70000000
622 3 15.93000000 5.31000000 17.70000000
623 2 15.93000000 3.54000000 19.47000000
624 3 14.16000000 5.31000000 19.47000000
625 3 14.16000000 7.08000000 0.00000000
626 3 15.93000000 8.85000000 0.00000000
627 2 15.93000000 7.08000000 1.77000000
628 2 14.16000000 8.85000000 1.77000000
629 3 14.16000000 7.08000000 3.54000000
630 2 15.93000000 8.85000000 3.54000000
631 2 15.93000000 7.08000000 5.31000000
632 3 14.16000000 8.85000000 5.31000000
633 3 14.16000000 7.08000000 7.08000000
634 3 15.93000000 8.85000000 7.08000000
635 3 15.93000000 7.08000000 8.85000000
636 3 14.16000000 8.85000000 8.85000000
637 3 14.16000000 7.08000000 10.62000000
638 3 15.93000000 8.85000000 10.62000000
639 3 15.93000000 7.08000000 12.39000000
640 3 14.16000000 8.85000000 12.39000000
641 3 14.16000000 7.08000000 14.16000000
642 2 15.93000000 8.85000000 14.16000000
643 3 15.93000000 7.08000000 15.93000000
644 3 14.16000000 8.85000000 15.93000000
645 3 14.16000000 7.08000000 17.70000000
646 2 15.93000000 8.85000000 17.70000000
647 3 15.93000000 7.08000000 19.47000000
648 3 14.16000000 8.85000000 19.47000000
649 3 14.16000000 10.62000000 0.00000000
650 3 15.93000000 12.39000000 0.00000000
651 3 15.93000000 10.62000000 1.77000000
652 2 14.16000000 12.39000000 1.77000000
653 2 14.16000000 10.62000000 3.54000000
654 3 15.93000000 12.39000000 3.54000000
655 3 15.93000000 10.62000000 5.31000000
656 3 14.16000000 12.39000000 5.31000000
657 2 14.16000000 10.62000000 7.08000000
658 2 15.93000000 12.39000000 7.08000000
659 3 15.93000000 10.62000000 8.85000000
660 3 14.16000000 12.39000000 8.85000000
661 3 14.16000000 10.62000000 10.62000000
662 3 15.93000000 12.39000000 10.62000000
663 3 15.93000000 10.62000000 12.39000000
664 3 14.16000000 12.39000000 12.39000000
665 2 14.16000000 10.62000000 14.16000000
666 3 15.93000000 12.39000000 14.16000000
667 2 15.93000000 10.62000000 15.93000000
668 3 14.16000000 12.39000000 15.93000000
669 3 14.16000000 10.62000000 17.70000000
670 3 15.93000000 12.39000000 17.70000000
671 2 15.93000000 10.62000000 19.47000000
672 3 14.16000000 12.39000000 19.47000000
673 2 14.16000000 14.16000000 0.00000000
674 3 15.93000000 15.93000000 0.00000000
675 3 15.93000000 14.16000000 1.77000000
676 3 14.16000000 15.93000000 1.77000000
677 3 14.16000000 14.16000000 3.54000000
678 3 15.93000000 15.93000000 3.54000000
679 3 15.93000000 14.16000000 5.31000000
680 3 14.16000000 15.93000000 5.31000000
681 3 14.16000000 14.16000000 7.08000000
682 3 15.93000000 15.93000000 7.08000000
683 2 15.93000000 14.16000000 8.85000000
684 2 14.16000000 15.93000000 8.85000000
685 3 14.16000000 14.16000000 10.62000000
686 3 15.93000000 15.93000000 10.62000000
687 3 15.93000000 14.16000000 12.39000000
688 3 14.16000000 15.93000000 12.39000000
689 3 14.16000000 14.16000000 14.16000000
690 3 15.93000000 15.93000000 14.16000000
691 3 15.93000000 14.16000000 15.93000000
692 3 14.16000000 15.93000000 15.93000000
693 3 14.16000000 14.16000000 17.70000000
694 3 15.93000000 15.93000000 17.70000000
695 3 15.93000000 14.16000000 19.47000000
696 3 14.16000000 15.93000000 19.47000000
697 2 14.16000000 17.70000000 0.00000000
698 3 15.93000000 19.47000000 0.00000000
699 3 15.93000000 17.70000000 1.77000000
700 3 14.16000000 19.47000000 1.77000000
701 3 14.16000000 17.70000000 3.54000000
702 3 15.93000000 19.47000000 3.54000000
703 2 15.93000000 17.70000000 5.31000000
704 3 14.16000000 19.47000000 5.31000000
705 2 14.16000000 17.70000000 7.08000000
706 2 15.93000000 19.47000000 7.08000000
707 2 15.93000000 17.70000000 8.85000000
708 3 14.16000000 19.47000000 8.85000000
709 3 14.16000000 17.70000000 10.62000000
710 3 15.93000000 19.47000000 10.62000000
711 3 15.93000000 17.70000000 12.39000000
712 3 14.16000000 19.47000000 12.39000000
713 2 14.16000000 17.70000000 14.16000000
714 3 15.93000000 19.47000000 14.16000000
715 3 15.93000000 17.70000000 15.93000000
716 3 14.16000000 19.47000000 15.93000000
717 2 14.16000000 17.70000000 17.70000000
718 3 15.93000000 19.47000000 17.70000000
719 2 15.93000000 17.70000000 19.47000000
720 2 14.16000000 19.47000000 19.47000000
721 3 17.70000000 0.00000000 0.00000000
722 3 19.47000000 1.77000000 0.00000000
723 3 19.47000000 0.00000000 1.77000000
724 3 17.70000000 1.77000000 1.77000000
725 2 17.70000000 0.00000000 3.54000000
726 3 19.47000000 1.77000000 3.54000000
727 2 19.47000000 0.00000000 5.31000000
728 3 17.70000000 1.77000000 5.31000000
729 3 17.70000000 0.00000000 7.08000000
730 2 19.47000000 1.77000000 7.08000000
731 3 19.47000000 0.00000000 8.85000000
732 2 17.70000000 1.77000000 8.85000000
733 3 17.70000000 0.00000000 10.62000000
734 2 19.47000000 1.77000000 10.62000000
735 2 19.47000000 0.00000000 12.39000000
736 3 17.70000000 1.77000000 12.39000000
737 3 17.70000000 0.00000000 14.16000000