LAMMPS (10 Sep 2025)
  using 8 OpenMP thread(s) per MPI task
Loaded 1 plugins from C:\Users\J.Shiva\AppData\Local\LAMMPS 64-bit 10Sep2025\plugins
using multi-threaded neighbor list subroutines
Reading data file ...
  orthogonal box = (0 0 0) to (22.3326 22.3326 22.3326)
  1 by 1 by 1 MPI processor grid
  reading atoms ...
  864 atoms
  read_data CPU = 0.004 seconds
=== STAGE 1: Energy Minimization ===
Switching to 'neigh_modify every 1 delay 0 check yes' setting during minimization
No /omp style for force computation currently active
Neighbor list info ...
  update: every = 1 steps, delay = 0 steps, check = yes
  max neighbors/atom: 4000, page size: 100000
  master list distance cutoff = 8
  ghost atom cutoff = 8
  binsize = 4, bins = 6 6 6
  2 neighbor lists, perpetual/occasional/extra = 2 0 0
  (1) pair meam, perpetual
      attributes: full, newton on, omp
      pair build: full/bin/atomonly/omp
      stencil: full/bin/3d
      bin: standard
  (2) pair meam, perpetual, half/full from (1)
      attributes: half, newton on, omp
      pair build: halffull/newton/omp
      stencil: none
      bin: none
Setting up cg style minimization ...
  Unit style    : metal
  Current step  : 0
Per MPI rank memory allocation (min/avg/max) = 21.26 | 21.26 | 21.26 Mbytes
   Step          Temp          PotEng         KinEng         TotEng         Press          Volume           Lx             Ly             Lz      
         0   0             -3501.4233      0             -3501.4233     -29797.595      11138.273      22.3326        22.3326        22.3326      
        21   0             -3647.0096      0             -3647.0096     -36750.533      11138.273      22.3326        22.3326        22.3326      
Loop time of 0.815404 on 8 procs for 21 steps with 864 atoms

90.1% CPU use with 1 MPI tasks x 8 OpenMP threads

Minimization stats:
  Stopping criterion = energy tolerance
  Energy initial, next-to-last, final = 
      -3501.4232805661  -3647.00912320895  -3647.00957855925
  Force two-norm initial, final = 81.386078 12.853789
  Force max component initial, final = 6.2932373 3.4840985
  Final line search alpha, max atom move = 0.078758369 0.27440192
  Iterations, force evaluations = 21 42

MPI task timing breakdown:
Section |  min time  |  avg time  |  max time  |%varavg| %total
---------------------------------------------------------------
Pair    | 0.75593    | 0.75593    | 0.75593    |   0.0 | 92.71
Neigh   | 0          | 0          | 0          |   0.0 |  0.00
Comm    | 0.00072    | 0.00072    | 0.00072    |   0.0 |  0.09
Output  | 0          | 0          | 0          |   0.0 |  0.00
Modify  | 0.05805    | 0.05805    | 0.05805    |   0.0 |  7.12
Other   |            | 0.000706   |            |       |  0.09

Nlocal:            864 ave         864 max         864 min
Histogram: 1 0 0 0 0 0 0 0 0 0
Nghost:           3767 ave        3767 max        3767 min
Histogram: 1 0 0 0 0 0 0 0 0 0
Neighs:          76032 ave       76032 max       76032 min
Histogram: 1 0 0 0 0 0 0 0 0 0
FullNghs:       152064 ave      152064 max      152064 min
Histogram: 1 0 0 0 0 0 0 0 0 0

Total # of neighbors = 152064
Ave neighs/atom = 176
Neighbor list builds = 0
Dangerous builds = 0
Minimized PE/atom: -4.22107590111024 eV/atom
=== STAGE 2: NPT Equilibration at 200 K ===
No /omp style for force computation currently active
Setting up Verlet run ...
  Unit style    : metal
  Current step  : 0
  Time step     : 0.002
Per MPI rank memory allocation (min/avg/max) = 20.14 | 20.14 | 20.14 Mbytes
   Step          Temp          PotEng         KinEng         TotEng         Press          Volume           Lx             Ly             Lz      
         0   200           -3647.0096      22.310301     -3624.6993     -34611.061      11138.273      22.3326        22.3326        22.3326      
       500   205.14796     -3636.2608      22.884564     -3613.3762     -4248.2568      10844.346      22.134402      22.134402      22.134402    
      1000   199.44023     -3638.4197      22.247858     -3616.1719     -1436.0061      10827.365      22.122842      22.122842      22.122842    
      1500   188.17564     -3637.5499      20.991276     -3616.5586      2016.3968      10798.159      22.102933      22.102933      22.102933    
      2000   193.61669     -3638.0413      21.598233     -3616.443       1533.5878      10789.884      22.097286      22.097286      22.097286    
      2500   197.4501      -3637.6768      22.025855     -3615.6509      1997.6578      10798.436      22.103122      22.103122      22.103122    
      3000   196.34438     -3639.183       21.902511     -3617.2805     -1892.4865      10825.002      22.121233      22.121233      22.121233    
      3500   186.94312     -3638.1809      20.853786     -3617.3272      173.69911      10794.351      22.100334      22.100334      22.100334    
      4000   194.07154     -3638.0337      21.648972     -3616.3848     -129.2624       10812.955      22.113023      22.113023      22.113023    
      4500   204.50142     -3637.9556      22.812441     -3615.1432      2347.1786      10799.523      22.103864      22.103864      22.103864    
      5000   200.86601     -3638.0849      22.406906     -3615.678      -1651.4578      10826.554      22.12229       22.12229       22.12229     
      5500   206.01855     -3638.5299      22.98168      -3615.5482      202.12234      10813.704      22.113534      22.113534      22.113534    
      6000   199.79625     -3639.6081      22.287572     -3617.3205     -1794.402       10814.241      22.1139        22.1139        22.1139      
      6500   192.09129     -3639.0612      21.428073     -3617.6331      2015.9849      10787.955      22.095969      22.095969      22.095969    
      7000   206.26405     -3639.283       23.009066     -3616.2739     -1341.6896      10818.513      22.116812      22.116812      22.116812    
      7500   200.86963     -3638.3621      22.407309     -3615.9548     -3000.1628      10835.124      22.128126      22.128126      22.128126    
      8000   196.89712     -3638.5755      21.96417      -3616.6113     -1389.3384      10824.552      22.120927      22.120927      22.120927    
      8500   193.31232     -3637.9501      21.56428      -3616.3858     -1220.0853      10812.303      22.112579      22.112579      22.112579    
      9000   207.79544     -3637.897       23.179895     -3614.7171      3142.7165      10778.039      22.089196      22.089196      22.089196    
      9500   207.58064     -3637.4169      23.155933     -3614.2609      908.70709      10800.45       22.104496      22.104496      22.104496    
     10000   206.16833     -3638.1126      22.998388     -3615.1142     -761.70817      10807.662      22.109415      22.109415      22.109415    
     10500   206.62308     -3638.6537      23.049115     -3615.6046     -109.49232      10822.725      22.119681      22.119681      22.119681    
     11000   191.50608     -3639.4479      21.362791     -3618.0852     -4958.1652      10848.745      22.137394      22.137394      22.137394    
     11500   194.82357     -3638.4822      21.732862     -3616.7493     -1287.767       10816.915      22.115723      22.115723      22.115723    
     12000   197.46862     -3637.92        22.027921     -3615.8921     -748.27697      10833.079      22.126733      22.126733      22.126733    
     12500   194.94404     -3637.3426      21.746301     -3615.5963     -683.49588      10823.804      22.120417      22.120417      22.120417    
     13000   204.40801     -3638.8505      22.802021     -3616.0485     -2309.9534      10830.823      22.125197      22.125197      22.125197    
     13500   196.08725     -3638.6875      21.873827     -3616.8137      718.42041      10810.384      22.111271      22.111271      22.111271    
     14000   195.11523     -3638.6941      21.765397     -3616.9287      1239.2729      10807.771      22.109489      22.109489      22.109489    
     14500   201.7214      -3638.7452      22.502326     -3616.2428     -2065.6235      10828.019      22.123288      22.123288      22.123288    
     15000   198.50926     -3637.8161      22.144006     -3615.6721     -763.65358      10829.801      22.124502      22.124502      22.124502    
     15500   211.14521     -3637.3951      23.553566     -3613.8415      1599.6446      10811.084      22.111748      22.111748      22.111748    
     16000   196.37441     -3638.3373      21.905862     -3616.4314      4386.9246      10784.86       22.093855      22.093855      22.093855    
     16500   201.05163     -3638.7337      22.427612     -3616.306      -612.40623      10811.677      22.112152      22.112152      22.112152    
     17000   192.49888     -3637.4996      21.47354      -3616.026       1092.0728      10798.68       22.103288      22.103288      22.103288    
     17500   205.49207     -3637.3875      22.922949     -3614.4646     -3479.2994      10851.793      22.139467      22.139467      22.139467    
     18000   201.06818     -3637.3901      22.429458     -3614.9606     -3119.3639      10844.084      22.134224      22.134224      22.134224    
     18500   193.83113     -3637.2586      21.622154     -3615.6364     -3411.1494      10837.435      22.129699      22.129699      22.129699    
     19000   192.10916     -3638.0256      21.430066     -3616.5955     -4824.5098      10830.292      22.124836      22.124836      22.124836    
     19500   208.93633     -3638.5539      23.307162     -3615.2468      1120.3489      10808.402      22.10992       22.10992       22.10992     
     20000   194.1616      -3637.3754      21.659018     -3615.7163      154.79968      10800.043      22.104219      22.104219      22.104219    
Loop time of 312.037 on 8 procs for 20000 steps with 864 atoms

Performance: 11.076 ns/day, 2.167 hours/ns, 64.095 timesteps/s, 55.378 katom-step/s
92.2% CPU use with 1 MPI tasks x 8 OpenMP threads

MPI task timing breakdown:
Section |  min time  |  avg time  |  max time  |%varavg| %total
---------------------------------------------------------------
Pair    | 287        | 287        | 287        |   0.0 | 91.98
Neigh   | 0          | 0          | 0          |   0.0 |  0.00
Comm    | 0.226      | 0.226      | 0.226      |   0.0 |  0.07
Output  | 0.002972   | 0.002972   | 0.002972   |   0.0 |  0.00
Modify  | 24.769     | 24.769     | 24.769     |   0.0 |  7.94
Other   |            | 0.04093    |            |       |  0.01

Nlocal:            864 ave         864 max         864 min
Histogram: 1 0 0 0 0 0 0 0 0 0
Nghost:           3767 ave        3767 max        3767 min
Histogram: 1 0 0 0 0 0 0 0 0 0
Neighs:          71929 ave       71929 max       71929 min
Histogram: 1 0 0 0 0 0 0 0 0 0
FullNghs:       143858 ave      143858 max      143858 min
Histogram: 1 0 0 0 0 0 0 0 0 0

Total # of neighbors = 143858
Ave neighs/atom = 166.50231
Neighbor list builds = 0
Dangerous builds = 0
=== STAGE 3: NPT Production at 200 K ===
No /omp style for force computation currently active
Setting up Verlet run ...
  Unit style    : metal
  Current step  : 0
  Time step     : 0.001
Per MPI rank memory allocation (min/avg/max) = 20.14 | 20.14 | 20.14 Mbytes
   Step          Temp          PotEng         KinEng         TotEng         Press          Volume           Lx             Ly             Lz      
         0   194.1616      -3637.3754      21.659018     -3615.7163      154.79968      10800.043      22.104219      22.104219      22.104219    
       500   197.42033     -3638.4622      22.022535     -3616.4396      1787.6637      10802.97       22.106215      22.106215      22.106215    
      1000   192.57515     -3639.1024      21.482048     -3617.6203      1328.1879      10797.37       22.102394      22.102394      22.102394    
      1500   195.38196     -3639.1948      21.795152     -3617.3997     -1001.047       10817.769      22.116305      22.116305      22.116305    
      2000   198.52955     -3637.7283      22.14627      -3615.5821      2304.4098      10799.199      22.103642      22.103642      22.103642    
      2500   199.34837     -3638.2994      22.237611     -3616.0618      607.19622      10811.648      22.112133      22.112133      22.112133    
      3000   192.41722     -3639.2215      21.46443      -3617.757       1258.6137      10815.06       22.114459      22.114459      22.114459    
      3500   190.07315     -3638.6151      21.202946     -3617.4121     -695.36031      10816.66       22.115549      22.115549      22.115549    
      4000   195.30409     -3638.1294      21.786465     -3616.3429     -1185.4777      10823.831      22.120435      22.120435      22.120435    
      4500   206.26698     -3638.2248      23.009392     -3615.2154      516.3858       10810.297      22.111212      22.111212      22.111212    
      5000   201.14748     -3638.7875      22.438304     -3616.3492      1725.3006      10791.379      22.098306      22.098306      22.098306    
      5500   197.61263     -3638.4825      22.043986     -3616.4385     -1056.9784      10819.926      22.117775      22.117775      22.117775    
      6000   200.82009     -3637.6495      22.401784     -3615.2477     -1158.429       10826.25       22.122083      22.122083      22.122083    
      6500   208.43876     -3638.1677      23.251658     -3614.916       1290.3262      10809.317      22.110544      22.110544      22.110544    
      7000   203.18602     -3638.7005      22.665706     -3616.0348     -1015.0541      10817.569      22.116169      22.116169      22.116169    
      7500   196.5652      -3638.201       21.927144     -3616.2739      3839.8966      10778.589      22.089572      22.089572      22.089572    
      8000   207.32386     -3637.957       23.127289     -3614.8297     -320.91153      10815.018      22.11443       22.11443       22.11443     
      8500   206.41095     -3638.0234      23.025452     -3614.9979      2123.9377      10795.766      22.1013        22.1013        22.1013      
      9000   199.1985      -3638.4947      22.220892     -3616.2738     -1872.0504      10822.223      22.11934       22.11934       22.11934     
      9500   198.59459     -3638.9653      22.153526     -3616.8118     -499.33087      10812.306      22.112581      22.112581      22.112581    
     10000   194.21335     -3639.2163      21.664792     -3617.5515      3424.8943      10783.342      22.092819      22.092819      22.092819    
     10500   199.37202     -3639.5971      22.240248     -3617.3569      54.010408      10814.275      22.113923      22.113923      22.113923    
     11000   190.59935     -3638.1172      21.261644     -3616.8556      1835.9649      10805.948      22.108246      22.108246      22.108246    
     11500   198.73445     -3637.8396      22.169127     -3615.6704     -1370.8894      10811.461      22.112005      22.112005      22.112005    
     12000   202.61839     -3638.5603      22.602386     -3615.9579      437.04415      10800.948      22.104836      22.104836      22.104836    
     12500   188.99351     -3637.674       21.082511     -3616.5915      129.71816      10822.404      22.119463      22.119463      22.119463    
     13000   192.87427     -3638.8933      21.515415     -3617.3779     -687.79874      10819.994      22.117821      22.117821      22.117821    
     13500   205.64173     -3638.1798      22.939644     -3615.2402     -11.520471      10827.803      22.12314       22.12314       22.12314     
     14000   200.70952     -3638.7177      22.389449     -3616.3282     -990.39359      10817.848      22.116358      22.116358      22.116358    
     14500   198.67487     -3639.5363      22.162481     -3617.3738     -3161.917       10827.913      22.123216      22.123216      22.123216    
     15000   198.57351     -3638.573       22.151174     -3616.4219     -1201.7533      10837.47       22.129723      22.129723      22.129723    
     15500   208.76459     -3638.8333      23.288004     -3615.5453      1852.4852      10799.565      22.103892      22.103892      22.103892    
     16000   198.75925     -3638.684       22.171894     -3616.5121      3387.9218      10802.34       22.105785      22.105785      22.105785    
     16500   192.27635     -3639.3896      21.448717     -3617.9409      211.48498      10814.256      22.113911      22.113911      22.113911    
     17000   193.94363     -3639.1558      21.634704     -3617.5211     -1019.4726      10815.652      22.114862      22.114862      22.114862    
     17500   199.37168     -3638.5248      22.240211     -3616.2846      990.62885      10807.44       22.109263      22.109263      22.109263    
     18000   200.08634     -3637.7914      22.319933     -3615.4714     -569.11844      10812.922      22.113001      22.113001      22.113001    
     18500   203.68606     -3639.3263      22.721487     -3616.6048      600.5977       10802.134      22.105645      22.105645      22.105645    
     19000   200.37149     -3638.2568      22.351741     -3615.9051      5074.7571      10780.437      22.090834      22.090834      22.090834    
     19500   214.25124     -3638.7097      23.900049     -3614.8097     -54.183759      10819.942      22.117785      22.117785      22.117785    
     20000   186.81474     -3637.824       20.839465     -3616.9846      1115.2918      10805.648      22.108041      22.108041      22.108041    
     20500   193.04398     -3638.791       21.534346     -3617.2567     -1141.977       10825.212      22.121376      22.121376      22.121376    
     21000   192.31758     -3639.5839      21.453316     -3618.1306     -3034.5439      10835.616      22.12846       22.12846       22.12846     
     21500   208.17548     -3638.817       23.222288     -3615.5947     -3225.8642      10844.684      22.134632      22.134632      22.134632    
     22000   200.19343     -3637.7213      22.331879     -3615.3894      2577.5275      10803.57       22.106624      22.106624      22.106624    
     22500   202.2857      -3638.3848      22.565274     -3615.8195     -896.04093      10813.61       22.11347       22.11347       22.11347     
     23000   194.94402     -3638.2962      21.746299     -3616.5499      710.31675      10817.959      22.116434      22.116434      22.116434    
     23500   198.08775     -3638.6884      22.096987     -3616.5914      86.802068      10806.294      22.108482      22.108482      22.108482    
     24000   192.46242     -3637.2963      21.469473     -3615.8268     -260.37671      10803.555      22.106614      22.106614      22.106614    
     24500   203.8425      -3637.9346      22.738938     -3615.1956     -1063.8831      10817.726      22.116275      22.116275      22.116275    
     25000   203.98258     -3638.1144      22.754564     -3615.3598      411.74661      10823.673      22.120328      22.120328      22.120328    
     25500   203.52677     -3638.9322      22.703717     -3616.2285     -260.92795      10819.726      22.117639      22.117639      22.117639    
     26000   198.06341     -3639.544       22.094272     -3617.4498     -2305.9894      10827.471      22.122915      22.122915      22.122915    
     26500   196.06358     -3638.7756      21.871188     -3616.9044      993.99467      10803.66       22.106686      22.106686      22.106686    
     27000   217.89131     -3638.4395      24.306104     -3614.1334      334.46608      10812.58       22.112768      22.112768      22.112768    
     27500   192.92937     -3638.3723      21.521562     -3616.8507     -465.85416      10823.904      22.120485      22.120485      22.120485    
     28000   199.56851     -3639.0878      22.262168     -3616.8256      659.05933      10812.102      22.112443      22.112443      22.112443    
     28500   197.64939     -3638.7612      22.048087     -3616.7131     -1498.9859      10820.375      22.118081      22.118081      22.118081    
     29000   196.55677     -3638.2729      21.926204     -3616.3466      2733.1334      10782.646      22.092344      22.092344      22.092344    
     29500   200.74436     -3638.2524      22.393336     -3615.859       1779.0545      10806.757      22.108798      22.108798      22.108798    
     30000   198.31208     -3638.2823      22.122011     -3616.1603      1377.3879      10805.12       22.107681      22.107681      22.107681    
     30500   201.39543     -3639.5664      22.465963     -3617.1004      258.71803      10813.06       22.113095      22.113095      22.113095    
     31000   188.8698      -3639.0701      21.06871      -3618.0014     -3835.6678      10835.52       22.128396      22.128396      22.128396    
     31500   207.2661      -3639.087       23.120845     -3615.9661     -2757.8933      10839.292      22.130963      22.130963      22.130963    
     32000   200.6351      -3639.8061      22.381147     -3617.4249     -44.758092      10818.283      22.116655      22.116655      22.116655    
     32500   192.04529     -3638.4029      21.422942     -3616.98        319.32893      10812.165      22.112485      22.112485      22.112485    
     33000   202.50596     -3638.8444      22.589845     -3616.2546      327.62222      10811.098      22.111758      22.111758      22.111758    
     33500   209.20185     -3638.2096      23.336781     -3614.8728      136.35284      10802.912      22.106176      22.106176      22.106176    
     34000   206.07407     -3638.3248      22.987873     -3615.3369      31.099039      10804.044      22.106947      22.106947      22.106947    
     34500   210.36815     -3638.0759      23.466884     -3614.609       5.7105034      10827.919      22.12322       22.12322       22.12322     
     35000   195.67898     -3638.8466      21.828285     -3617.0183      2494.4259      10782.57       22.092291      22.092291      22.092291    
     35500   193.82081     -3638.5165      21.621003     -3616.8955      1256.0766      10795.506      22.101122      22.101122      22.101122    
     36000   210.13337     -3637.3081      23.440694     -3613.8674     -3019.4845      10837.79       22.12994       22.12994       22.12994     
     36500   192.92925     -3637.7836      21.521549     -3616.2621     -51.593777      10816.482      22.115427      22.115427      22.115427    
     37000   198.79897     -3638.7892      22.176324     -3616.6129     -2180.2492      10822.183      22.119312      22.119312      22.119312    
     37500   197.6127      -3638.5739      22.043994     -3616.5299      181.75918      10800.656      22.104637      22.104637      22.104637    
     38000   197.2831      -3637.4103      22.007227     -3615.4031      1828.1765      10794.614      22.100514      22.100514      22.100514    
     38500   212.26639     -3638.7809      23.678635     -3615.1023      1618.5596      10796.812      22.102014      22.102014      22.102014    
     39000   195.23772     -3638.5174      21.779061     -3616.7383      257.99684      10816.108      22.115173      22.115173      22.115173    
     39500   192.7743      -3638.4724      21.504263     -3616.9681     -392.83822      10822.783      22.119721      22.119721      22.119721    
     40000   204.98889     -3638.5656      22.866819     -3615.6987      131.59952      10813.099      22.113122      22.113122      22.113122    
     40500   210.4388      -3638.164       23.474765     -3614.6892     -834.44489      10815.689      22.114887      22.114887      22.114887    
     41000   202.53753     -3638.1227      22.593366     -3615.5293      3433.1794      10783.207      22.092727      22.092727      22.092727    
     41500   200.75972     -3638.8708      22.395048     -3616.4758      1923.0498      10790.268      22.097548      22.097548      22.097548    
     42000   194.11719     -3638.2052      21.654065     -3616.5511      6364.4315      10766.697      22.081445      22.081445      22.081445    
     42500   199.60704     -3638.8555      22.266466     -3616.5891      82.287075      10817.159      22.115889      22.115889      22.115889    
     43000   201.60705     -3637.8019      22.48957      -3615.3123     -1193.4055      10832.693      22.126471      22.126471      22.126471    
     43500   200.26257     -3637.7002      22.339591     -3615.3606      401.60949      10815.362      22.114664      22.114664      22.114664    
     44000   194.20823     -3637.339       21.66422      -3615.6748     -1640.6201      10834.631      22.12779       22.12779       22.12779     
     44500   194.69816     -3638.6673      21.718873     -3616.9484     -2225.7587      10832.845      22.126574      22.126574      22.126574    
     45000   202.20587     -3638.5225      22.556369     -3615.9662      961.86206      10810.85       22.111589      22.111589      22.111589    
     45500   206.2334      -3638.5222      23.005646     -3615.5166      223.51316      10812.134      22.112464      22.112464      22.112464    
     46000   201.81326     -3638.519       22.512573     -3616.0064     -1039.9713      10827.244      22.12276       22.12276       22.12276     
     46500   191.46556     -3639.604       21.358271     -3618.2457     -3474.4431      10834.093      22.127424      22.127424      22.127424    
     47000   197.65107     -3638.497       22.048275     -3616.4488     -957.40217      10834.232      22.127519      22.127519      22.127519    
     47500   203.40887     -3638.4428      22.690565     -3615.7522     -1349.1697      10832.79       22.126536      22.126536      22.126536    
     48000   196.75007     -3637.3939      21.947767     -3615.4461     -600.2254       10825.186      22.121358      22.121358      22.121358    
     48500   199.00236     -3638.0175      22.199013     -3615.8185     -471.1219       10812.629      22.112802      22.112802      22.112802    
     49000   194.837       -3638.3158      21.734361     -3616.5814      557.39667      10805.745      22.108107      22.108107      22.108107    
     49500   197.41026     -3638.6607      22.021412     -3616.6392     -3120.7292      10829.614      22.124374      22.124374      22.124374    
     50000   202.56037     -3638.7034      22.595914     -3616.1075      228.58845      10816.23       22.115256      22.115256      22.115256    
Loop time of 827.241 on 8 procs for 50000 steps with 864 atoms

Performance: 5.222 ns/day, 4.596 hours/ns, 60.442 timesteps/s, 52.222 katom-step/s
91.6% CPU use with 1 MPI tasks x 8 OpenMP threads

MPI task timing breakdown:
Section |  min time  |  avg time  |  max time  |%varavg| %total
---------------------------------------------------------------
Pair    | 762.02     | 762.02     | 762.02     |   0.0 | 92.12
Neigh   | 0          | 0          | 0          |   0.0 |  0.00
Comm    | 0.60379    | 0.60379    | 0.60379    |   0.0 |  0.07
Output  | 0.006953   | 0.006953   | 0.006953   |   0.0 |  0.00
Modify  | 64.504     | 64.504     | 64.504     |   0.0 |  7.80
Other   |            | 0.1094     |            |       |  0.01

Nlocal:            864 ave         864 max         864 min
Histogram: 1 0 0 0 0 0 0 0 0 0
Nghost:           3761 ave        3761 max        3761 min
Histogram: 1 0 0 0 0 0 0 0 0 0
Neighs:          74066 ave       74066 max       74066 min
Histogram: 1 0 0 0 0 0 0 0 0 0
FullNghs:       148132 ave      148132 max      148132 min
Histogram: 1 0 0 0 0 0 0 0 0 0

Total # of neighbors = 148132
Ave neighs/atom = 171.44907
Neighbor list builds = 0
Dangerous builds = 0

=== FINAL RESULTS: FCC at 200 K ===
Atoms: 864 | PE/atom: -4.21140536938766 eV/atom
WARNING: Detected non-ASCII characters in input. Will try to continue by replacing with ASCII equivalents where known. (src/input.cpp:479)
Volume: 10816.2298634277 …³ | Area: 489.084544327157 ²
==========================================
FCC 200 864 -4.21140536938766 10816.2298634277 22.1152559181927 22.1152559181927 22.1152559181927 489.084544327157
Simulation complete!
Total wall time: 0:19:00
