LAMMPS (10 Sep 2025)
  using 8 OpenMP thread(s) per MPI task
Loaded 1 plugins from C:\Users\J.Shiva\AppData\Local\LAMMPS 64-bit 10Sep2025\plugins
using multi-threaded neighbor list subroutines
Reading data file ...
  orthogonal box = (0 0 0) to (15.791533 27.351737 25.787465)
  1 by 1 by 1 MPI processor grid
  reading atoms ...
  432 atoms
  read_data CPU = 0.004 seconds
=== STAGE 1: Energy Minimization ===
Switching to 'neigh_modify every 1 delay 0 check yes' setting during minimization
No /omp style for force computation currently active
Neighbor list info ...
  update: every = 1 steps, delay = 0 steps, check = yes
  max neighbors/atom: 4000, page size: 100000
  master list distance cutoff = 8
  ghost atom cutoff = 8
  binsize = 4, bins = 4 7 7
  2 neighbor lists, perpetual/occasional/extra = 2 0 0
  (1) pair meam, perpetual
      attributes: full, newton on, omp
      pair build: full/bin/atomonly/omp
      stencil: full/bin/3d
      bin: standard
  (2) pair meam, perpetual, half/full from (1)
      attributes: half, newton on, omp
      pair build: halffull/newton/omp
      stencil: none
      bin: none
Setting up cg style minimization ...
  Unit style    : metal
  Current step  : 0
Per MPI rank memory allocation (min/avg/max) = 19.33 | 19.33 | 19.33 Mbytes
   Step          Temp          PotEng         KinEng         TotEng         Press          Volume           Lx             Ly             Lz      
         0   0             -1185.5294      0             -1185.5294     -46600.374      11138.273      15.791533      27.351737      25.787465    
       333   0             -1559.8072      0             -1559.8072     -45732.953      11138.273      15.791533      27.351737      25.787465    
Loop time of 3.75523 on 8 procs for 333 steps with 432 atoms

85.7% CPU use with 1 MPI tasks x 8 OpenMP threads

Minimization stats:
  Stopping criterion = energy tolerance
  Energy initial, next-to-last, final = 
      -1185.5294458195  -1559.80641289134   -1559.8071807187
  Force two-norm initial, final = 45.9543 7.8595095
  Force max component initial, final = 6.292362 3.111273
  Final line search alpha, max atom move = 0.041761272 0.12993072
  Iterations, force evaluations = 333 933

MPI task timing breakdown:
Section |  min time  |  avg time  |  max time  |%varavg| %total
---------------------------------------------------------------
Pair    | 3.441      | 3.441      | 3.441      |   0.0 | 91.63
Neigh   | 0.00671    | 0.00671    | 0.00671    |   0.0 |  0.18
Comm    | 0.006841   | 0.006841   | 0.006841   |   0.0 |  0.18
Output  | 0          | 0          | 0          |   0.0 |  0.00
Modify  | 0.29153    | 0.29153    | 0.29153    |   0.0 |  7.76
Other   |            | 0.009152   |            |       |  0.24

Nlocal:            432 ave         432 max         432 min
Histogram: 1 0 0 0 0 0 0 0 0 0
Nghost:           1723 ave        1723 max        1723 min
Histogram: 1 0 0 0 0 0 0 0 0 0
Neighs:          18140 ave       18140 max       18140 min
Histogram: 1 0 0 0 0 0 0 0 0 0
FullNghs:        36280 ave       36280 max       36280 min
Histogram: 1 0 0 0 0 0 0 0 0 0

Total # of neighbors = 36280
Ave neighs/atom = 83.981481
Neighbor list builds = 8
Dangerous builds = 0
Minimized PE/atom: -3.61066477018217 eV/atom
=== STAGE 2: NPT Equilibration at 200 K ===
No /omp style for force computation currently active
Setting up Verlet run ...
  Unit style    : metal
  Current step  : 0
  Time step     : 0.002
Per MPI rank memory allocation (min/avg/max) = 18.23 | 18.23 | 18.23 Mbytes
   Step          Temp          PotEng         KinEng         TotEng         Press          Volume           Lx             Ly             Lz      
         0   200           -1559.8072      11.142224     -1548.665      -44664.456      11138.273      15.791533      27.351737      25.787465    
       500   491.65943     -1732.5917      27.390899     -1705.2008     -3653.3434      6532.5733      13.218427      22.894987      21.5856      
      1000   224.26817     -1793.6934      12.494231     -1781.1992     -3259.7536      6003.7159      12.851635      22.259685      20.986632    
      1500   199.86842     -1803.8136      11.134894     -1792.6787     -1483.1093      5943.5046      12.808527      22.18502       20.916238    
      2000   192.02783     -1811.5275      10.698086     -1800.8294     -1943.9555      5853.2526      12.743364      22.072154      20.809826    
      2500   197.1255      -1814.9641      10.982083     -1803.982      -1777.9791      5832.7105      12.728439      22.046303      20.785454    
      3000   217.04756     -1815.8544      12.091963     -1803.7624      2946.8481      5819.3388      12.718705      22.029443      20.769558    
      3500   212.97517     -1816.8614      11.865086     -1804.9963      561.05331      5805.3025      12.708471      22.011717      20.752846    
      4000   178.51894     -1820.2802      9.9454907     -1810.3347      2280.3609      5763.492       12.677888      21.958746      20.702904    
      4500   206.18899     -1821.3373      11.48702      -1809.8503      4075.1043      5720.2387      12.646093      21.903676      20.650984    
      5000   202.73406     -1821.4589      11.294542     -1810.1644     -2087.6722      5756.626       12.672851      21.950022      20.69468     
      5500   204.42006     -1823.4969      11.388471     -1812.1084     -1877.947       5745.7223      12.664845      21.936155      20.681605    
      6000   196.55647     -1823.3657      10.950382     -1812.4153      1020.1313      5730.3835      12.653565      21.916617      20.663185    
      6500   208.27408     -1825.1282      11.603183     -1813.525       3984.0695      5714.3322      12.641739      21.896135      20.643874    
      7000   227.49246     -1826.9105      12.67386      -1814.2367     -4100.2052      5724.2385      12.64904       21.90878       20.655796    
      7500   207.36512     -1829.2787      11.552544     -1817.7262     -1181.7961      5699.1897      12.630563      21.876777      20.625623    
      8000   193.29541     -1830.9215      10.768704     -1820.1528     -5694.9545      5699.8326      12.631038      21.877599      20.626398    
      8500   181.30942     -1830.6412      10.100951     -1820.5403     -1447.5297      5692.6328      12.625717      21.868384      20.61771     
      9000   196.97838     -1830.101       10.973887     -1819.1271      4606.6691      5659.7881      12.601388      21.826245      20.577981    
      9500   198.6249      -1830.1736      11.065616     -1819.108       2563.5103      5677.9972      12.614888      21.849627      20.600026    
     10000   201.53473     -1831.6096      11.227726     -1820.3818      1189.052       5658.474       12.600413      21.824555      20.576388    
     10500   187.92522     -1833.4841      10.469525     -1823.0146     -1342.1095      5659.0647      12.600851      21.825315      20.577104    
     11000   193.80377     -1833.3545      10.797025     -1822.5575      2016.5712      5651.5688      12.595285      21.815674      20.568015    
     11500   206.51367     -1833.2812      11.505108     -1821.7761      320.30532      5646.9273      12.591836      21.8097        20.562382    
     12000   196.72612     -1833.3187      10.959833     -1822.3588      59.867476      5643.6367      12.58939       21.805463      20.558388    
     12500   194.70814     -1834.2702      10.847409     -1823.4228     -1537.2687      5645.4418      12.590732      21.807788      20.560579    
     13000   195.10533     -1834.6329      10.869537     -1823.7634      2883.8642      5634.0057      12.582224      21.793052      20.546686    
     13500   206.11624     -1834.1908      11.482967     -1822.7079      3.6307444      5656.8063      12.599175      21.822411      20.574366    
     14000   211.4941      -1834.8371      11.782574     -1823.0545     -2063.3219      5663.6466      12.604251      21.831204      20.582656    
     14500   195.14718     -1837.5376      10.871868     -1826.6657     -2688.7297      5666.2289      12.606167      21.834521      20.585784    
     15000   199.92554     -1838.0767      11.138076     -1826.9386      2248.3715      5635.179       12.583098      21.794565      20.548113    
     15500   191.45823     -1838.7708      10.666353     -1828.1044      5260.5961      5624.9643      12.57549       21.781388      20.53569     
     16000   209.19663     -1839.0263      11.654579     -1827.3718     -1245.9347      5651.9407      12.595562      21.816153      20.568466    
     16500   198.80346     -1838.3375      11.075564     -1827.262       5209.0966      5622.3893      12.573571      21.778064      20.532556    
     17000   201.2909      -1838.4565      11.214142     -1827.2423      1945.9789      5623.1351      12.574127      21.779027      20.533463    
     17500   198.952       -1839.1976      11.083839     -1828.1138     -966.10625      5644.2148      12.58982       21.806208      20.55909     
     18000   206.76855     -1840.2381      11.519308     -1828.7188      1853.4109      5632.8977      12.5814        21.791623      20.54534     
     18500   201.82689     -1840.0608      11.244002     -1828.8168      1421.0272      5637.3188      12.58469       21.797323      20.550713    
     19000   200.0531      -1839.2951      11.145183     -1828.15       -1516.7587      5647.3245      12.592132      21.810212      20.562865    
     19500   203.01718     -1839.3555      11.310315     -1828.0452     -1051.1567      5655.2151      12.597993      21.820365      20.572437    
     20000   202.65382     -1839.1074      11.290072     -1827.8173      1945.9635      5638.2284      12.585367      21.798495      20.551819    
Loop time of 165.196 on 8 procs for 20000 steps with 432 atoms

Performance: 20.921 ns/day, 1.147 hours/ns, 121.068 timesteps/s, 52.301 katom-step/s
88.6% CPU use with 1 MPI tasks x 8 OpenMP threads

MPI task timing breakdown:
Section |  min time  |  avg time  |  max time  |%varavg| %total
---------------------------------------------------------------
Pair    | 143.51     | 143.51     | 143.51     |   0.0 | 86.87
Neigh   | 0.021946   | 0.021946   | 0.021946   |   0.0 |  0.01
Comm    | 0.15773    | 0.15773    | 0.15773    |   0.0 |  0.10
Output  | 0.002795   | 0.002795   | 0.002795   |   0.0 |  0.00
Modify  | 21.473     | 21.473     | 21.473     |   0.0 | 13.00
Other   |            | 0.02843    |            |       |  0.02

Nlocal:            432 ave         432 max         432 min
Histogram: 1 0 0 0 0 0 0 0 0 0
Nghost:           2627 ave        2627 max        2627 min
Histogram: 1 0 0 0 0 0 0 0 0 0
Neighs:          35084 ave       35084 max       35084 min
Histogram: 1 0 0 0 0 0 0 0 0 0
FullNghs:        70168 ave       70168 max       70168 min
Histogram: 1 0 0 0 0 0 0 0 0 0

Total # of neighbors = 70168
Ave neighs/atom = 162.42593
Neighbor list builds = 25
Dangerous builds = 0
=== STAGE 3: NPT Production at 200 K ===
No /omp style for force computation currently active
Setting up Verlet run ...
  Unit style    : metal
  Current step  : 0
  Time step     : 0.001
Per MPI rank memory allocation (min/avg/max) = 18.63 | 18.63 | 18.63 Mbytes
   Step          Temp          PotEng         KinEng         TotEng         Press          Volume           Lx             Ly             Lz      
         0   202.65382     -1839.1074      11.290072     -1827.8173      1945.9635      5638.2284      12.585367      21.798495      20.551819    
       500   195.74151     -1839.36        10.904979     -1828.4551     -582.43181      5621.6681      12.573033      21.777133      20.531678    
      1000   202.62914     -1840.017       11.288697     -1828.7283      1173.4344      5625.0738      12.575572      21.781529      20.535823    
      1500   194.74662     -1840.7412      10.849553     -1829.8917     -2446.6825      5635.4471      12.583297      21.79491       20.548439    
      2000   201.24215     -1840.6274      11.211426     -1829.416       632.99105      5624.6458      12.575253      21.780977      20.535302    
      2500   204.50764     -1840.4047      11.39335      -1829.0114     -1501.2483      5634.2045      12.582372      21.793308      20.546928    
      3000   201.24093     -1840.5705      11.211358     -1829.3591     -1290.3078      5646.849       12.591778      21.809599      20.562287    
      3500   212.42615     -1840.9693      11.834499     -1829.1348      222.35196      5610.6452      12.56481       21.76289       20.518249    
      4000   202.48304     -1841.5474      11.280558     -1830.2668      8226.1846      5574.6738      12.537901      21.716281      20.474306    
      4500   205.1434      -1842.0159      11.428769     -1830.5871     -3726.6711      5622.7402      12.573833      21.778517      20.532983    
      5000   203.69009     -1842.5455      11.347803     -1831.1977     -2288.2139      5613.5046      12.566944      21.766586      20.521734    
      5500   201.21135     -1841.776       11.20971      -1830.5662     -1629.3791      5623.3667      12.5743        21.779326      20.533745    
      6000   202.22036     -1841.7371      11.265923     -1830.4712      3554.2044      5610.423       12.564644      21.762603      20.517978    
      6500   199.63747     -1842.29        11.122028     -1831.1679     -4105.1465      5621.1542      12.57265       21.776469      20.531052    
      7000   191.37997     -1841.6679      10.661993     -1831.0059     -3004.2718      5618.0008      12.570299      21.772396      20.527212    
      7500   196.18633     -1842.0782      10.92976      -1831.1485     -2370.0842      5612.6188      12.566283      21.765441      20.520655    
      8000   202.76761     -1842.6531      11.296411     -1831.3567      2260.8539      5605.5886      12.561035      21.75635       20.512083    
      8500   199.97572     -1841.9431      11.140872     -1830.8023      805.96244      5608.6132      12.563293      21.760262      20.515772    
      9000   200.63737     -1842.1644      11.177733     -1830.9866     -4268.9016      5614.2169      12.567476      21.767507      20.522602    
      9500   191.23325     -1843.2937      10.653819     -1832.6399      1467.4039      5600.9739      12.557587      21.750378      20.506453    
     10000   198.7599      -1842.142       11.073137     -1831.0688      99.415984      5596.8219      12.554483      21.745002      20.501385    
     10500   201.71381     -1841.8097      11.237703     -1830.572      -6224.898       5634.6239      12.582685      21.793849      20.547438    
     11000   188.38055     -1841.8706      10.494892     -1831.3757     -49.854592      5591.2671      12.550328      21.737806      20.4946      
     11500   203.34963     -1842.8702      11.328836     -1831.5414      2713.5128      5585.9142      12.546322      21.730867      20.488058    
     12000   202.25424     -1843.0194      11.267811     -1831.7516      1035.217       5583.1703      12.544267      21.727308      20.484702    
     12500   199.59127     -1842.0915      11.119454     -1830.972      -285.28924      5602.6587      12.558846      21.752559      20.508509    
     13000   193.50864     -1842.8156      10.780584     -1832.035      -2229.7422      5602.0603      12.558399      21.751784      20.507779    
     13500   196.68617     -1842.505       10.957607     -1831.5474      5523.388       5569.702       12.534172      21.709823      20.468217    
     14000   204.6334      -1842.5553      11.400357     -1831.155      -1899.7702      5603.8367      12.559726      21.754083      20.509946    
     14500   188.88635     -1842.6805      10.52307      -1832.1574     -4338.1067      5626.3948      12.576556      21.783234      20.53743     
     15000   196.02011     -1843.4892      10.9205       -1832.5687     -1056.5307      5601.4038      12.557908      21.750935      20.506978    
     15500   204.15219     -1843.0171      11.373548     -1831.6435     -4089.7016      5612.5238      12.566213      21.765319      20.520539    
     16000   212.03423     -1842.9856      11.812665     -1831.173       4494.7046      5579.2107      12.541301      21.72217       20.479859    
     16500   196.74172     -1843.0072      10.960702     -1832.0465     -5001.7937      5636.649       12.584192      21.79646       20.549899    
     17000   195.20067     -1843.0226      10.874849     -1832.1477     -2480.3396      5623.2073      12.574181      21.77912       20.533551    
     17500   199.37108     -1842.6295      11.107187     -1831.5223      2010.4452      5597.7672      12.55519       21.746227      20.502539    
     18000   198.21531     -1843.6996      11.042797     -1832.6568     -1938.5774      5609.0771      12.56364       21.760862      20.516338    
     18500   199.72226     -1844.0474      11.126751     -1832.9207      4436.3175      5580.4426      12.542224      21.723769      20.481366    
     19000   186.96009     -1842.5476      10.415757     -1832.1319      3313.107       5581.6198      12.543106      21.725297      20.482806    
     19500   197.04841     -1842.6641      10.977788     -1831.6863      2327.8403      5611.1009      12.56515       21.763479      20.518805    
     20000   201.72339     -1842.3569      11.238237     -1831.1187      4339.5561      5591.1336      12.550228      21.737633      20.494437    
     20500   202.85011     -1841.8169      11.301007     -1830.5159     -2503.3914      5632.2055      12.580884      21.790731      20.544498    
     21000   185.97593     -1841.8917      10.360928     -1831.5308     -2884.4369      5616.1778      12.568939      21.770041      20.524991    
     21500   195.89417     -1843.0426      10.913484     -1832.1291     -2541.4537      5613.6192      12.56703       21.766734      20.521874    
     22000   208.13113     -1843.3247      11.595219     -1831.7295     -761.4396       5606.8594      12.561984      21.757994      20.513633    
     22500   215.91078     -1842.7133      12.028632     -1830.6846     -536.58363      5603.9082      12.559779      21.754176      20.510034    
     23000   223.68857     -1843.14        12.461942     -1830.678      -1580.7895      5608.6781      12.563342      21.760346      20.515851    
     23500   193.67874     -1842.0199      10.79006      -1831.2298     -3265.4797      5624.2664      12.57497       21.780487      20.53484     
     24000   200.01758     -1842.9841      11.143204     -1831.8409     -2905.1971      5613.0563      12.56661       21.766007      20.521188    
     24500   188.11691     -1843.322       10.480204     -1832.8418      2490.9833      5590.8235      12.549996      21.737231      20.494058    
     25000   187.54262     -1842.2327      10.44821      -1831.7845     -1710.275       5605.0028      12.560597      21.755592      20.511369    
     25500   204.98226     -1842.757       11.419792     -1831.3373     -2202.7021      5612.6272      12.56629       21.765452      20.520665    
     26000   184.47609     -1843.1434      10.27737      -1832.866      -43.223446      5594.5084      12.552753      21.742006      20.49856     
     26500   197.29937     -1843.5024      10.991769     -1832.5106      1298.3766      5603.6575      12.559592      21.753851      20.509728    
     27000   193.0648      -1842.8265      10.755856     -1832.0706      914.92278      5604.869       12.560497      21.755419      20.511206    
     27500   199.38186     -1842.2748      11.107787     -1831.167       803.71893      5597.4468      12.55495       21.745812      20.502148    
     28000   196.12774     -1841.8872      10.926497     -1830.9607     -1799.0849      5608.5597      12.563253      21.760193      20.515707    
     28500   206.74072     -1843.2392      11.517757     -1831.7214     -626.7065       5602.9685      12.559077      21.75296       20.508887    
     29000   193.76023     -1842.3966      10.7946       -1831.602       3157.5078      5593.6132      12.552083      21.740846      20.497466    
     29500   214.66291     -1843.1895      11.959112     -1831.2304      304.4497       5595.6015      12.55357       21.743422      20.499895    
     30000   203.47581     -1843.0577      11.335866     -1831.7219     -1726.5029      5607.5776      12.56252       21.758923      20.514509    
     30500   192.71032     -1842.5771      10.736108     -1831.841       2094.8944      5593.9128      12.552307      21.741234      20.497832    
     31000   191.91286     -1843.7668      10.691681     -1833.0751     -2419.8141      5609.8507      12.564217      21.761863      20.517281    
     31500   194.15121     -1843.2908      10.816382     -1832.4745      1285.7051      5596.6217      12.554333      21.744743      20.50114     
     32000   190.84338     -1842.3001      10.632099     -1831.668      -6378.5055      5638.8394      12.585822      21.799283      20.552561    
     32500   206.63227     -1842.4873      11.511716     -1830.9756      1220.8035      5598.7354      12.555914      21.74748       20.503721    
     33000   204.49438     -1843.2386      11.392611     -1831.846       2886.8126      5595.0197      12.553135      21.742668      20.499184    
     33500   203.41055     -1843.8657      11.33223      -1832.5335      2690.5784      5596.2999      12.554093      21.744326      20.500747    
     34000   198.83287     -1843.826       11.077203     -1832.7488      1181.3697      5593.1592      12.551744      21.740258      20.496912    
     34500   202.57032     -1842.6279      11.28542      -1831.3425      1093.2392      5600.7579      12.557425      21.750099      20.50619     
     35000   188.88402     -1842.9361      10.522941     -1832.4132      1251.3618      5602.8437      12.558984      21.752798      20.508735    
     35500   194.83673     -1842.9458      10.854573     -1832.0913      3355.0519      5588.1514      12.547997      21.733768      20.490793    
     36000   214.74084     -1842.4696      11.963453     -1830.5061     -2727.6557      5627.7762      12.577585      21.785017      20.539111    
     36500   206.93659     -1842.6048      11.52867      -1831.0762     -2072.9253      5609.5412      12.563986      21.761462      20.516903    
     37000   206.989       -1843.1217      11.531589     -1831.5901      4152.7911      5590.3862      12.549669      21.736664      20.493524    
     37500   194.36051     -1842.8694      10.828042     -1832.0414     -1725.4541      5601.9161      12.558291      21.751598      20.507603    
     38000   215.31563     -1843.5971      11.995475     -1831.6017     -1447.9655      5614.656       12.567804      21.768074      20.523137    
     38500   206.67841     -1842.1037      11.514286     -1830.5894      2481.1952      5594.1712      12.552501      21.741569      20.498148    
     39000   215.3449      -1842.7827      11.997106     -1830.7856     -360.73904      5609.122       12.563673      21.76092       20.516392    
     39500   199.98964     -1843.0349      11.141647     -1831.8933     -1741.9593      5616.4832      12.569167      21.770436      20.525363    
     40000   193.38848     -1843.0779      10.773889     -1832.304      -898.41308      5617.1683      12.569678      21.771321      20.526198    
     40500   196.73973     -1843.6968      10.960591     -1832.7362      3544.3383      5581.9826      12.543378      21.725767      20.48325     
     41000   196.43837     -1843.3205      10.943802     -1832.3767      2292.4332      5592.7585      12.551444      21.739739      20.496422    
     41500   196.7011      -1842.2665      10.958439     -1831.308       2240.3189      5594.3564      12.552639      21.741809      20.498374    
     42000   202.86369     -1842.6023      11.301764     -1831.3006     -4229.7224      5624.0177      12.574785      21.780166      20.534538    
     42500   192.37669     -1842.8264      10.717521     -1832.1089     -5705.0032      5629.8704      12.579145      21.787719      20.541658    
     43000   189.13669     -1843.1242      10.537017     -1832.5872     -637.50095      5601.7346      12.558155      21.751363      20.507382    
     43500   205.19173     -1843.2195      11.431461     -1831.7881      3150.7684      5580.1663      12.542017      21.723411      20.481028    
     44000   215.40512     -1842.8387      12.000461     -1830.8383     -751.79639      5595.785       12.553708      21.743659      20.500119    
     44500   204.39919     -1842.6758      11.387308     -1831.2884     -63.428251      5610.3817      12.564614      21.762549      20.517928    
     45000   196.98349     -1842.1161      10.974171     -1831.1419     -2143.816       5617.5516      12.569964      21.771816      20.526665    
     45500   200.65298     -1843.3368      11.178603     -1832.1582     -3871.5797      5614.3948      12.567609      21.767737      20.522819    
     46000   192.6803      -1843.0483      10.734436     -1832.3139      3201.6238      5581.6984      12.543165      21.725399      20.482902    
     46500   204.10454     -1843.0252      11.370893     -1831.6543      308.77406      5599.1157      12.556198      21.747973      20.504185    
     47000   191.78707     -1841.7687      10.684673     -1831.0841     -1937.9063      5607.3051      12.562316      21.75857       20.514177    
     47500   209.40623     -1842.5259      11.666256     -1830.8596      3854.8223      5586.7271      12.54693       21.731921      20.489052    
     48000   202.64102     -1843.3466      11.289359     -1832.0572      2156.5977      5590.3857      12.549669      21.736664      20.493523    
     48500   183.23768     -1842.3923      10.208377     -1832.1839     -2134.3295      5614.3276      12.567559      21.76765       20.522737    
     49000   194.79831     -1842.3496      10.852433     -1831.4972      1572.4469      5591.0433      12.550161      21.737516      20.494327    
     49500   214.63093     -1843.1649      11.95733      -1831.2076     -1443.8951      5606.2032      12.561494      21.757145      20.512833    
     50000   212.42604     -1843.3892      11.834493     -1831.5547     -2079.5072      5603.714       12.559634      21.753925      20.509797    
Loop time of 425.272 on 8 procs for 50000 steps with 432 atoms

Performance: 10.158 ns/day, 2.363 hours/ns, 117.572 timesteps/s, 50.791 katom-step/s
87.7% CPU use with 1 MPI tasks x 8 OpenMP threads

MPI task timing breakdown:
Section |  min time  |  avg time  |  max time  |%varavg| %total
---------------------------------------------------------------
Pair    | 369.64     | 369.64     | 369.64     |   0.0 | 86.92
Neigh   | 0.000966   | 0.000966   | 0.000966   |   0.0 |  0.00
Comm    | 0.40185    | 0.40185    | 0.40185    |   0.0 |  0.09
Output  | 0.007306   | 0.007306   | 0.007306   |   0.0 |  0.00
Modify  | 55.154     | 55.154     | 55.154     |   0.0 | 12.97
Other   |            | 0.06563    |            |       |  0.02

Nlocal:            432 ave         432 max         432 min
Histogram: 1 0 0 0 0 0 0 0 0 0
Nghost:           2626 ave        2626 max        2626 min
Histogram: 1 0 0 0 0 0 0 0 0 0
Neighs:          35394 ave       35394 max       35394 min
Histogram: 1 0 0 0 0 0 0 0 0 0
FullNghs:        70788 ave       70788 max       70788 min
Histogram: 1 0 0 0 0 0 0 0 0 0

Total # of neighbors = 70788
Ave neighs/atom = 163.86111
Neighbor list builds = 1
Dangerous builds = 0

=== FINAL RESULTS: DHCP at 200 K ===
Atoms: 432 | PE/atom: -4.26575565030435 eV/atom
WARNING: Detected non-ASCII characters in input. Will try to continue by replacing with ASCII equivalents where known. (src/input.cpp:479)
Volume: 5603.7140350419 …³ | Area: 273.221334391594 ²
==========================================
DHCP 200 432 -4.26575565030435 5603.7140350419 12.5596341894179 21.7539245388051 20.5097967459978 273.221334391594
Simulation complete!
Total wall time: 0:09:54
