LAMMPS (10 Sep 2025)
  using 8 OpenMP thread(s) per MPI task
Loaded 1 plugins from C:\Users\J.Shiva\AppData\Local\LAMMPS 64-bit 10Sep2025\plugins
using multi-threaded neighbor list subroutines
Reading data file ...
  orthogonal box = (0 0 0) to (22.3326 22.3326 22.3326)
  1 by 1 by 1 MPI processor grid
  reading atoms ...
  864 atoms
  read_data CPU = 0.013 seconds
=== STAGE 1: Energy Minimization ===
Switching to 'neigh_modify every 1 delay 0 check yes' setting during minimization
No /omp style for force computation currently active
Neighbor list info ...
  update: every = 1 steps, delay = 0 steps, check = yes
  max neighbors/atom: 4000, page size: 100000
  master list distance cutoff = 8
  ghost atom cutoff = 8
  binsize = 4, bins = 6 6 6
  2 neighbor lists, perpetual/occasional/extra = 2 0 0
  (1) pair meam, perpetual
      attributes: full, newton on, omp
      pair build: full/bin/atomonly/omp
      stencil: full/bin/3d
      bin: standard
  (2) pair meam, perpetual, half/full from (1)
      attributes: half, newton on, omp
      pair build: halffull/newton/omp
      stencil: none
      bin: none
Setting up cg style minimization ...
  Unit style    : metal
  Current step  : 0
Per MPI rank memory allocation (min/avg/max) = 21.26 | 21.26 | 21.26 Mbytes
   Step          Temp          PotEng         KinEng         TotEng         Press          Volume           Lx             Ly             Lz      
         0   0             -3501.4233      0             -3501.4233     -29797.595      11138.273      22.3326        22.3326        22.3326      
        21   0             -3647.0096      0             -3647.0096     -36750.533      11138.273      22.3326        22.3326        22.3326      
Loop time of 0.591098 on 8 procs for 21 steps with 864 atoms

87.2% CPU use with 1 MPI tasks x 8 OpenMP threads

Minimization stats:
  Stopping criterion = energy tolerance
  Energy initial, next-to-last, final = 
      -3501.4232805661  -3647.00912320895  -3647.00957855925
  Force two-norm initial, final = 81.386078 12.853789
  Force max component initial, final = 6.2932373 3.4840985
  Final line search alpha, max atom move = 0.078758369 0.27440192
  Iterations, force evaluations = 21 42

MPI task timing breakdown:
Section |  min time  |  avg time  |  max time  |%varavg| %total
---------------------------------------------------------------
Pair    | 0.58465    | 0.58465    | 0.58465    |   0.0 | 98.91
Neigh   | 0          | 0          | 0          |   0.0 |  0.00
Comm    | 0.000429   | 0.000429   | 0.000429   |   0.0 |  0.07
Output  | 0          | 0          | 0          |   0.0 |  0.00
Modify  | 0.005442   | 0.005442   | 0.005442   |   0.0 |  0.92
Other   |            | 0.000577   |            |       |  0.10

Nlocal:            864 ave         864 max         864 min
Histogram: 1 0 0 0 0 0 0 0 0 0
Nghost:           3767 ave        3767 max        3767 min
Histogram: 1 0 0 0 0 0 0 0 0 0
Neighs:          76032 ave       76032 max       76032 min
Histogram: 1 0 0 0 0 0 0 0 0 0
FullNghs:       152064 ave      152064 max      152064 min
Histogram: 1 0 0 0 0 0 0 0 0 0

Total # of neighbors = 152064
Ave neighs/atom = 176
Neighbor list builds = 0
Dangerous builds = 0
Minimized PE/atom: -4.22107590111024 eV/atom
=== STAGE 2: NPT Equilibration at 400 K ===
No /omp style for force computation currently active
Setting up Verlet run ...
  Unit style    : metal
  Current step  : 0
  Time step     : 0.002
Per MPI rank memory allocation (min/avg/max) = 20.14 | 20.14 | 20.14 Mbytes
   Step          Temp          PotEng         KinEng         TotEng         Press          Volume           Lx             Ly             Lz      
         0   400           -3647.0096      44.620602     -3602.389      -32471.588      11138.273      22.3326        22.3326        22.3326      
       500   410.48646     -3615.4697      45.790382     -3569.6793     -542.48017      10929.65       22.192288      22.192288      22.192288    
      1000   375.6368      -3614.8245      41.90285      -3572.9216      74.28152       10906.428      22.17656       22.17656       22.17656     
      1500   389.54568     -3614.2649      43.454406     -3570.8105      1667.6492      10893.339      22.167685      22.167685      22.167685    
      2000   423.59657     -3615.8993      47.252835     -3568.6465      1919.9758      10905.137      22.175685      22.175685      22.175685    
      2500   419.03709     -3615.4737      46.744218     -3568.7295     -2751.3749      10934.634      22.195661      22.195661      22.195661    
      3000   410.05697     -3615.7957      45.742472     -3570.0532      135.5675       10920.493      22.186089      22.186089      22.186089    
      3500   396.60683     -3617.6839      44.242089     -3573.4418      2416.444       10893.073      22.167504      22.167504      22.167504    
      4000   392.14012     -3616.1603      43.743821     -3572.4165     -60.672787      10910.552      22.179355      22.179355      22.179355    
      4500   391.53009     -3613.1812      43.675771     -3569.5054      1601.6068      10897.992      22.170841      22.170841      22.170841    
      5000   412.28677     -3614.512       45.99121      -3568.5208     -2920.5384      10942.931      22.201273      22.201273      22.201273    
      5500   396.67418     -3613.6127      44.249601     -3569.3631      793.49056      10907.677      22.177407      22.177407      22.177407    
      6000   399.59216     -3616.246       44.575107     -3571.6709      1861.2773      10882.252      22.160162      22.160162      22.160162    
      6500   402.50047     -3616.4712      44.899533     -3571.5717      245.04444      10879.537      22.158319      22.158319      22.158319    
      7000   409.90474     -3615.0252      45.725491     -3569.2997      1294.8979      10890.613      22.165835      22.165835      22.165835    
      7500   392.48031     -3615.9309      43.78177      -3572.1492      1904.6374      10904.558      22.175293      22.175293      22.175293    
      8000   379.41129     -3616.2604      42.3239       -3573.9365      1090.9507      10904.203      22.175052      22.175052      22.175052    
      8500   383.72992     -3614.7462      42.80565      -3571.9406      7477.6034      10848.956      22.137538      22.137538      22.137538    
      9000   401.17464     -3614.5373      44.751635     -3569.7857      972.99938      10893.193      22.167586      22.167586      22.167586    
      9500   414.83481     -3615.8578      46.275448     -3569.5823      497.73856      10896.553      22.169865      22.169865      22.169865    
     10000   386.2488      -3615.227       43.086635     -3572.1403      918.59404      10909.003      22.178305      22.178305      22.178305    
     10500   402.76472     -3615.567       44.929011     -3570.638      -2062.2952      10947.764      22.204541      22.204541      22.204541    
     11000   401.59772     -3615.2122      44.79883      -3570.4134     -895.28668      10927.965      22.191148      22.191148      22.191148    
     11500   389.3018      -3615.4771      43.427202     -3572.0499     -2870.2268      10952.455      22.207712      22.207712      22.207712    
     12000   380.48781     -3616.2156      42.443988     -3573.7716      668.74872      10922.754      22.18762       22.18762       22.18762     
     12500   392.59818     -3616.9603      43.794918     -3573.1654      3262.1818      10870.213      22.151987      22.151987      22.151987    
     13000   404.98785     -3617.0803      45.177005     -3571.9033      2821.8466      10878.138      22.157369      22.157369      22.157369    
     13500   395.03383     -3614.7122      44.066618     -3570.6456      1080.5293      10902.833      22.174123      22.174123      22.174123    
     14000   408.81202     -3612.9724      45.603596     -3567.3688     -136.28207      10920.399      22.186025      22.186025      22.186025    
     14500   402.97503     -3616.3228      44.952471     -3571.3703      1815.6745      10906.431      22.176562      22.176562      22.176562    
     15000   386.40218     -3615.9487      43.103744     -3572.8449      1689.8046      10905.461      22.175905      22.175905      22.175905    
     15500   413.01955     -3614.7181      46.072953     -3568.6451     -438.36987      10915.385      22.182629      22.182629      22.182629    
     16000   405.08547     -3614.8156      45.187894     -3569.6277     -2576.3837      10933.819      22.195109      22.195109      22.195109    
     16500   408.33227     -3618.0954      45.550079     -3572.5454      2362.2243      10876.19       22.156046      22.156046      22.156046    
     17000   409.80278     -3618.0181      45.714117     -3572.3039      8534.0047      10809.749      22.110838      22.110838      22.110838    
     17500   405.21471     -3615.8342      45.20231      -3570.6319      2916.1229      10899.61       22.171938      22.171938      22.171938    
     18000   411.06946     -3616.1743      45.855417     -3570.3189     -2565.6218      10931.37       22.193452      22.193452      22.193452    
     18500   402.88787     -3618.3683      44.942748     -3573.4255     -2553.9666      10914.004      22.181694      22.181694      22.181694    
     19000   401.5331      -3618.0661      44.791622     -3573.2745      2169.7492      10883.012      22.160677      22.160677      22.160677    
     19500   385.36856     -3617.1895      42.988442     -3574.201       1042.4924      10888.86       22.164646      22.164646      22.164646    
     20000   394.23365     -3616.3221      43.977358     -3572.3447      1591.4666      10883.965      22.161324      22.161324      22.161324    
Loop time of 313.542 on 8 procs for 20000 steps with 864 atoms

Performance: 11.022 ns/day, 2.177 hours/ns, 63.787 timesteps/s, 55.112 katom-step/s
90.6% CPU use with 1 MPI tasks x 8 OpenMP threads

MPI task timing breakdown:
Section |  min time  |  avg time  |  max time  |%varavg| %total
---------------------------------------------------------------
Pair    | 282.45     | 282.45     | 282.45     |   0.0 | 90.08
Neigh   | 0.001448   | 0.001448   | 0.001448   |   0.0 |  0.00
Comm    | 0.22495    | 0.22495    | 0.22495    |   0.0 |  0.07
Output  | 0.003004   | 0.003004   | 0.003004   |   0.0 |  0.00
Modify  | 30.82      | 30.82      | 30.82      |   0.0 |  9.83
Other   |            | 0.04538    |            |       |  0.01

Nlocal:            864 ave         864 max         864 min
Histogram: 1 0 0 0 0 0 0 0 0 0
Nghost:           3759 ave        3759 max        3759 min
Histogram: 1 0 0 0 0 0 0 0 0 0
Neighs:          73296 ave       73296 max       73296 min
Histogram: 1 0 0 0 0 0 0 0 0 0
FullNghs:       146592 ave      146592 max      146592 min
Histogram: 1 0 0 0 0 0 0 0 0 0

Total # of neighbors = 146592
Ave neighs/atom = 169.66667
Neighbor list builds = 1
Dangerous builds = 0
=== STAGE 3: NPT Production at 400 K ===
No /omp style for force computation currently active
Setting up Verlet run ...
  Unit style    : metal
  Current step  : 0
  Time step     : 0.001
Per MPI rank memory allocation (min/avg/max) = 20.14 | 20.14 | 20.14 Mbytes
   Step          Temp          PotEng         KinEng         TotEng         Press          Volume           Lx             Ly             Lz      
         0   394.23365     -3616.3221      43.977358     -3572.3447      1591.4666      10883.965      22.161324      22.161324      22.161324    
       500   395.2438      -3615.8161      44.090041     -3571.726      -239.6682       10913.814      22.181565      22.181565      22.181565    
      1000   404.94702     -3615.1358      45.172449     -3569.9633      2224.7606      10897.378      22.170424      22.170424      22.170424    
      1500   393.47343     -3612.3313      43.892553     -3568.4387     -835.20039      10934.273      22.195417      22.195417      22.195417    
      2000   401.81998     -3616.5455      44.823623     -3571.7219     -3949.5902      10964.518      22.215863      22.215863      22.215863    
      2500   397.59132     -3616.8109      44.35191      -3572.459       3268.738       10888.736      22.164562      22.164562      22.164562    
      3000   393.05813     -3615.1809      43.846226     -3571.3347      3268.7689      10870.745      22.152348      22.152348      22.152348    
      3500   421.95035     -3615.8275      47.069197     -3568.7583      792.49185      10907.012      22.176956      22.176956      22.176956    
      4000   404.05065     -3616.5342      45.072459     -3571.4617     -1731.2487      10945.996      22.203346      22.203346      22.203346    
      4500   398.05069     -3617.4278      44.403154     -3573.0247      4738.8798      10871.292      22.152719      22.152719      22.152719    
      5000   397.2053      -3614.458       44.308849     -3570.1492     -54.935086      10925.472      22.18946       22.18946       22.18946     
      5500   406.03531     -3613.7286      45.29385      -3568.4348      503.40964      10927.741      22.190996      22.190996      22.190996    
      6000   408.50351     -3615.1737      45.569182     -3569.6045      1217.7236      10904.721      22.175403      22.175403      22.175403    
      6500   411.27401     -3617.4135      45.878235     -3571.5353      326.30489      10923.742      22.188289      22.188289      22.188289    
      7000   386.45161     -3616.4289      43.109259     -3573.3196     -3884.3644      10961.837      22.214052      22.214052      22.214052    
      7500   397.94814     -3613.8496      44.391714     -3569.4578      2521.171       10929.855      22.192427      22.192427      22.192427    
      8000   401.25528     -3615.9892      44.760631     -3571.2286     -3297.1701      10968.013      22.218223      22.218223      22.218223    
      8500   412.98776     -3618.4811      46.069406     -3572.4117     -401.30139      10911.184      22.179783      22.179783      22.179783    
      9000   395.13972     -3615.7574      44.078431     -3571.679      -3833.8334      10961.727      22.213977      22.213977      22.213977    
      9500   414.15113     -3615.1828      46.199182     -3568.9837      2696.7994      10918.276      22.184587      22.184587      22.184587    
     10000   390.01035     -3616.1979      43.506241     -3572.6916      462.27007      10912.573      22.180724      22.180724      22.180724    
     10500   397.9131      -3614.5782      44.387806     -3570.1903      760.46455      10919.552      22.185452      22.185452      22.185452    
     11000   401.74625     -3614.9138      44.815399     -3570.0984      427.64619      10947.011      22.204032      22.204032      22.204032    
     11500   396.79129     -3617.4043      44.262665     -3573.1416     -1999.4562      10949.165      22.205489      22.205489      22.205489    
     12000   397.43891     -3616.1769      44.334909     -3571.842       408.90892      10927.006      22.190499      22.190499      22.190499    
     12500   416.38437     -3616.0749      46.448303     -3569.6266     -2225.9273      10935.126      22.195994      22.195994      22.195994    
     13000   400.63199     -3616.9593      44.691102     -3572.2682      4052.9614      10892.077      22.166829      22.166829      22.166829    
     13500   400.74391     -3617.455       44.703586     -3572.7514      2466.2702      10869.327      22.151385      22.151385      22.151385    
     14000   406.31306     -3615.8828      45.324833     -3570.558       2125.265       10876.191      22.156047      22.156047      22.156047    
     14500   389.39945     -3614.0652      43.438095     -3570.6271     -2277.3631      10954.262      22.208933      22.208933      22.208933    
     15000   387.13276     -3615.4106      43.185243     -3572.2253     -2369.6823      10951.459      22.207039      22.207039      22.207039    
     15500   386.30202     -3616.4315      43.092572     -3573.3389     -1960.2835      10924.614      22.188879      22.188879      22.188879    
     16000   398.55414     -3617.7475      44.459314     -3573.2882     -4844.1529      10957.323      22.211002      22.211002      22.211002    
     16500   387.39732     -3615.0471      43.214754     -3571.8323     -1406.5387      10924.048      22.188496      22.188496      22.188496    
     17000   391.82714     -3614.9295      43.708907     -3571.2206     -3008.377       10935.89       22.196511      22.196511      22.196511    
     17500   402.31982     -3615.7746      44.879381     -3570.8952      3772.077       10861.552      22.146102      22.146102      22.146102    
     18000   402.14677     -3619.7016      44.860078     -3574.8415      842.65402      10906.234      22.176429      22.176429      22.176429    
     18500   396.49677     -3618.2657      44.229812     -3574.0359     -1860.244       10920.371      22.186007      22.186007      22.186007    
     19000   401.9589      -3617.0039      44.83912      -3572.1648      2453.3817      10909.566      22.178687      22.178687      22.178687    
     19500   411.91054     -3616.0038      45.949241     -3570.0545     -1.3541475      10917.196      22.183856      22.183856      22.183856    
     20000   390.66729     -3616.587       43.579525     -3573.0074      2179.2261      10888.754      22.164575      22.164575      22.164575    
     20500   406.66185     -3615.632       45.363741     -3570.2682     -2796.6764      10937.72       22.197749      22.197749      22.197749    
     21000   410.3789      -3614.7211      45.778384     -3568.9427      1615.2159      10893.839      22.168024      22.168024      22.168024    
     21500   392.27952     -3614.9658      43.75937      -3571.2064     -803.61469      10918.416      22.184682      22.184682      22.184682    
     22000   396.907       -3616.7643      44.275574     -3572.4887     -4688.9685      10953.262      22.208258      22.208258      22.208258    
     22500   383.7941      -3616.6066      42.812809     -3573.7938     -2140.3826      10939.334      22.19884       22.19884       22.19884     
     23000   403.33739     -3616.2984      44.992893     -3571.3055      1373.1815      10913.713      22.181496      22.181496      22.181496    
     23500   386.21675     -3619.0272      43.08306      -3575.9442     -974.56056      10914.494      22.182026      22.182026      22.182026    
     24000   415.11888     -3617.2941      46.307136     -3570.987      -5191.3734      10970.978      22.220225      22.220225      22.220225    
     24500   403.53354     -3617.385       45.014773     -3572.3703      692.85626      10909.172      22.178419      22.178419      22.178419    
     25000   394.39409     -3617.2716      43.995255     -3573.2763      3818.3154      10885.453      22.162334      22.162334      22.162334    
     25500   415.54314     -3617.3002      46.354463     -3570.9458      2528.4571      10899.797      22.172065      22.172065      22.172065    
     26000   410.7952      -3616.0445      45.824822     -3570.2196     -1500.7873      10932.441      22.194177      22.194177      22.194177    
     26500   400.61896     -3617.5081      44.689647     -3572.8185     -2076.3156      10931.31       22.193412      22.193412      22.193412    
     27000   387.68334     -3618.6431      43.24666      -3575.3965     -959.48579      10907.506      22.17729       22.17729       22.17729     
     27500   395.50787     -3617.972       44.119498     -3573.8525      2147.288       10900.678      22.172662      22.172662      22.172662    
     28000   391.57517     -3616.7594      43.6808       -3573.0786     -3372.3147      10924.309      22.188673      22.188673      22.188673    
     28500   404.52495     -3615.9083      45.125367     -3570.7829     -1271.4422      10922.224      22.187261      22.187261      22.187261    
     29000   419.04664     -3615.4536      46.745284     -3568.7084      1571.2843      10927.138      22.190588      22.190588      22.190588    
     29500   393.73134     -3614.3401      43.921324     -3570.4188      1493.5975      10912.687      22.180801      22.180801      22.180801    
     30000   390.36673     -3616.5883      43.545997     -3573.0423     -167.18078      10916.917      22.183667      22.183667      22.183667    
     30500   393.92154     -3616.043       43.942541     -3572.1005      1605.3666      10886.251      22.162876      22.162876      22.162876    
     31000   405.86671     -3616.1637      45.275043     -3570.8887     -973.96205      10928.54       22.191537      22.191537      22.191537    
     31500   407.00468     -3614.9121      45.401985     -3569.5102      2863.4824      10897.855      22.170748      22.170748      22.170748    
     32000   399.02745     -3615.9341      44.512113     -3571.4219      1817.2229      10904.034      22.174937      22.174937      22.174937    
     32500   383.33058     -3615.4724      42.761104     -3572.7113      624.90341      10883.842      22.161241      22.161241      22.161241    
     33000   391.55379     -3616.9226      43.678414     -3573.2442      1491.2622      10897.397      22.170437      22.170437      22.170437    
     33500   419.47875     -3616.3425      46.793486     -3569.549      -3153.1727      10930.837      22.193092      22.193092      22.193092    
     34000   404.05045     -3614.3041      45.072436     -3569.2317      4451.5303      10876.927      22.156547      22.156547      22.156547    
     34500   403.23186     -3616.2013      44.981121     -3571.2202     -633.59873      10944.2        22.202132      22.202132      22.202132    
     35000   383.18116     -3613.9484      42.744435     -3571.204      -5264.9263      10936.257      22.196759      22.196759      22.196759    
     35500   403.32576     -3615.5377      44.991595     -3570.5462      5193.3691      10878.957      22.157925      22.157925      22.157925    
     36000   391.88962     -3616.3819      43.715877     -3572.666       2370.3339      10888.604      22.164473      22.164473      22.164473    
     36500   384.75112     -3616.3494      42.919567     -3573.4298     -847.33142      10920.657      22.1862        22.1862        22.1862      
     37000   392.22182     -3616.6323      43.752934     -3572.8793     -3303.4726      10972.888      22.221514      22.221514      22.221514    
     37500   406.77734     -3613.7309      45.376624     -3568.3542     -1109.8483      10940.464      22.199605      22.199605      22.199605    
     38000   411.4722      -3614.8318      45.900343     -3568.9315     -810.1305       10940.823      22.199848      22.199848      22.199848    
     38500   397.29101     -3617.4618      44.31841      -3573.1434      677.34805      10913.006      22.181018      22.181018      22.181018    
     39000   394.71601     -3615.1238      44.031165     -3571.0927     -369.88354      10926.572      22.190205      22.190205      22.190205    
     39500   409.32663     -3615.0986      45.661001     -3569.4376      1941.6158      10926.947      22.190458      22.190458      22.190458    
     40000   419.63359     -3616.0436      46.810759     -3569.2328     -3479.7066      10945.726      22.203164      22.203164      22.203164    
     40500   397.33584     -3617.0022      44.323411     -3572.6787     -1651.9905      10929.978      22.19251       22.19251       22.19251     
     41000   393.18034     -3617.262       43.859859     -3573.4021      2754.1243      10883.686      22.161135      22.161135      22.161135    
     41500   385.41276     -3617.5312      42.993373     -3574.5378      424.46808      10919.624      22.185501      22.185501      22.185501    
     42000   395.72713     -3618.4833      44.143957     -3574.3394     -1938.4593      10925.662      22.189589      22.189589      22.189589    
     42500   402.50792     -3614.8802      44.900364     -3569.9798     -2192.7769      10938.369      22.198188      22.198188      22.198188    
     43000   398.08531     -3615.3434      44.407015     -3570.9364      2360.9332      10889.941      22.16538       22.16538       22.16538     
     43500   398.27621     -3617.5584      44.428311     -3573.13        6185.2888      10851.706      22.139408      22.139408      22.139408    
     44000   407.61249     -3615.6995      45.469787     -3570.2297     -243.71414      10923.513      22.188134      22.188134      22.188134    
     44500   399.83656     -3618.4034      44.60237      -3573.801      -2853.0917      10934.438      22.195529      22.195529      22.195529    
     45000   417.1617      -3616.7805      46.535015     -3570.2455     -418.96034      10909.257      22.178477      22.178477      22.178477    
     45500   411.12035     -3614.92        45.861093     -3569.0589     -5.1187768      10913.556      22.18139       22.18139       22.18139     
     46000   386.40094     -3615.1573      43.103607     -3572.0537      1607.9652      10909.663      22.178753      22.178753      22.178753    
     46500   403.00564     -3619.115       44.955886     -3574.1592      857.90342      10892.375      22.167031      22.167031      22.167031    
     47000   392.87524     -3616.7729      43.825825     -3572.9471     -1148.131       10935.265      22.196088      22.196088      22.196088    
     47500   407.36987     -3616.6223      45.442722     -3571.1796      3934.788       10911.57       22.180045      22.180045      22.180045    
     48000   399.16819     -3616.9015      44.527812     -3572.3737      4659.6469      10874.763      22.155077      22.155077      22.155077    
     48500   387.00732     -3617.4537      43.17125      -3574.2825     -553.16345      10915.32       22.182585      22.182585      22.182585    
     49000   389.3007      -3616.6489      43.427079     -3573.2218      1962.7477      10901.76       22.173396      22.173396      22.173396    
     49500   412.12641     -3618.4357      45.973321     -3572.4624      6380.7318      10836.832      22.129288      22.129288      22.129288    
     50000   428.05598     -3616.3251      47.750288     -3568.5748     -857.15083      10911.727      22.180151      22.180151      22.180151    
Loop time of 816.873 on 8 procs for 50000 steps with 864 atoms

Performance: 5.288 ns/day, 4.538 hours/ns, 61.209 timesteps/s, 52.885 katom-step/s
91.2% CPU use with 1 MPI tasks x 8 OpenMP threads

MPI task timing breakdown:
Section |  min time  |  avg time  |  max time  |%varavg| %total
---------------------------------------------------------------
Pair    | 749.09     | 749.09     | 749.09     |   0.0 | 91.70
Neigh   | 0          | 0          | 0          |   0.0 |  0.00
Comm    | 0.60496    | 0.60496    | 0.60496    |   0.0 |  0.07
Output  | 0.00753    | 0.00753    | 0.00753    |   0.0 |  0.00
Modify  | 67.049     | 67.049     | 67.049     |   0.0 |  8.21
Other   |            | 0.1168     |            |       |  0.01

Nlocal:            864 ave         864 max         864 min
Histogram: 1 0 0 0 0 0 0 0 0 0
Nghost:           3758 ave        3758 max        3758 min
Histogram: 1 0 0 0 0 0 0 0 0 0
Neighs:          73324 ave       73324 max       73324 min
Histogram: 1 0 0 0 0 0 0 0 0 0
FullNghs:       146648 ave      146648 max      146648 min
Histogram: 1 0 0 0 0 0 0 0 0 0

Total # of neighbors = 146648
Ave neighs/atom = 169.73148
Neighbor list builds = 0
Dangerous builds = 0

=== FINAL RESULTS: FCC at 400 K ===
Atoms: 864 | PE/atom: -4.18600996403539 eV/atom
WARNING: Detected non-ASCII characters in input. Will try to continue by replacing with ASCII equivalents where known. (src/input.cpp:479)
Volume: 10911.7273181262 …³ | Area: 491.959105301052 ²
==========================================
FCC 400 864 -4.18600996403539 10911.7273181262 22.1801511559559 22.1801511559559 22.1801511559559 491.959105301052
Simulation complete!
Total wall time: 0:18:51
