LAMMPS (10 Sep 2025)
  using 8 OpenMP thread(s) per MPI task
Loaded 1 plugins from C:\Users\J.Shiva\AppData\Local\LAMMPS 64-bit 10Sep2025\plugins
using multi-threaded neighbor list subroutines
Reading data file ...
  orthogonal box = (0 0 0) to (15.791533 27.351737 25.787465)
  1 by 1 by 1 MPI processor grid
  reading atoms ...
  432 atoms
  read_data CPU = 0.004 seconds
=== STAGE 1: Energy Minimization ===
Switching to 'neigh_modify every 1 delay 0 check yes' setting during minimization
No /omp style for force computation currently active
Neighbor list info ...
  update: every = 1 steps, delay = 0 steps, check = yes
  max neighbors/atom: 4000, page size: 100000
  master list distance cutoff = 8
  ghost atom cutoff = 8
  binsize = 4, bins = 4 7 7
  2 neighbor lists, perpetual/occasional/extra = 2 0 0
  (1) pair meam, perpetual
      attributes: full, newton on, omp
      pair build: full/bin/atomonly/omp
      stencil: full/bin/3d
      bin: standard
  (2) pair meam, perpetual, half/full from (1)
      attributes: half, newton on, omp
      pair build: halffull/newton/omp
      stencil: none
      bin: none
Setting up cg style minimization ...
  Unit style    : metal
  Current step  : 0
Per MPI rank memory allocation (min/avg/max) = 19.33 | 19.33 | 19.33 Mbytes
   Step          Temp          PotEng         KinEng         TotEng         Press          Volume           Lx             Ly             Lz      
         0   0             -1185.5294      0             -1185.5294     -46600.374      11138.273      15.791533      27.351737      25.787465    
       333   0             -1559.8072      0             -1559.8072     -45732.953      11138.273      15.791533      27.351737      25.787465    
Loop time of 3.29611 on 8 procs for 333 steps with 432 atoms

93.4% CPU use with 1 MPI tasks x 8 OpenMP threads

Minimization stats:
  Stopping criterion = energy tolerance
  Energy initial, next-to-last, final = 
      -1185.5294458195  -1559.80641289134   -1559.8071807187
  Force two-norm initial, final = 45.9543 7.8595095
  Force max component initial, final = 6.292362 3.111273
  Final line search alpha, max atom move = 0.041761272 0.12993072
  Iterations, force evaluations = 333 933

MPI task timing breakdown:
Section |  min time  |  avg time  |  max time  |%varavg| %total
---------------------------------------------------------------
Pair    | 3.0756     | 3.0756     | 3.0756     |   0.0 | 93.31
Neigh   | 0.006957   | 0.006957   | 0.006957   |   0.0 |  0.21
Comm    | 0.005085   | 0.005085   | 0.005085   |   0.0 |  0.15
Output  | 0          | 0          | 0          |   0.0 |  0.00
Modify  | 0.19974    | 0.19974    | 0.19974    |   0.0 |  6.06
Other   |            | 0.008729   |            |       |  0.26

Nlocal:            432 ave         432 max         432 min
Histogram: 1 0 0 0 0 0 0 0 0 0
Nghost:           1723 ave        1723 max        1723 min
Histogram: 1 0 0 0 0 0 0 0 0 0
Neighs:          18140 ave       18140 max       18140 min
Histogram: 1 0 0 0 0 0 0 0 0 0
FullNghs:        36280 ave       36280 max       36280 min
Histogram: 1 0 0 0 0 0 0 0 0 0

Total # of neighbors = 36280
Ave neighs/atom = 83.981481
Neighbor list builds = 8
Dangerous builds = 0
Minimized PE/atom: -3.61066477018217 eV/atom
=== STAGE 2: NPT Equilibration at 650 K ===
No /omp style for force computation currently active
Setting up Verlet run ...
  Unit style    : metal
  Current step  : 0
  Time step     : 0.002
Per MPI rank memory allocation (min/avg/max) = 18.23 | 18.23 | 18.23 Mbytes
   Step          Temp          PotEng         KinEng         TotEng         Press          Volume           Lx             Ly             Lz      
         0   650           -1559.8072      36.21223      -1523.595      -42260.339      11138.273      15.791533      27.351737      25.787465    
       500   999.42028     -1698.2181      55.678826     -1642.5393     -16284.949      7217.5822      13.665187      23.668798      22.315157    
      1000   693.31762     -1775.7414      38.625503     -1737.1159      5178.919       6091.4913      12.913963      22.36764       21.088414    
      1500   634.2459      -1796.2516      35.334551     -1760.917       2576.4854      5915.382       12.788294      22.149974      20.883196    
      2000   743.4156      -1809.931       41.416518     -1768.5145     -5336.7855      5855.8818      12.745272      22.075458      20.812942    
      2500   646.97921     -1807.7179      36.043938     -1771.674       4038.4916      5810.7904      12.712474      22.018651      20.759383    
      3000   631.56079     -1811.7646      35.18496      -1776.5796     -1342.0221      5773.7992      12.685441      21.971828      20.715238    
      3500   630.35436     -1815.4167      35.117749     -1780.2989      1000.6632      5742.2864      12.66232       21.931782      20.677482    
      4000   681.20885     -1816.7866      37.95091      -1778.8357     -232.88949      5766.6727      12.680219      21.962784      20.706712    
      4500   711.0871      -1819.0887      39.615461     -1779.4732     -1615.1299      5755.3547      12.671918      21.948406      20.693156    
      5000   679.25596     -1820.0696      37.842112     -1782.2275      1800.4015      5685.6118      12.620524      21.85939       20.60923     
      5500   663.13991     -1820.3027      36.944269     -1783.3585     -4666.432       5731.0474      12.654054      21.917464      20.663983    
      6000   669.51941     -1829.6383      37.299678     -1792.3386     -1072.146       5675.0772      12.612725      21.845881      20.596494    
      6500   669.24688     -1827.3117      37.284495     -1790.0272     -2414.7801      5685.4907      12.620435      21.859234      20.609084    
      7000   650.82721     -1829.5512      36.258314     -1793.2929      2306.9113      5653.456       12.596687      21.818102      20.570304    
      7500   642.71425     -1831.3098      35.806332     -1795.5035     -2197.06        5691.3037      12.624735      21.866682      20.616105    
      8000   668.31569     -1834.0162      37.232617     -1796.7836     -5395.7551      5693.8983      12.626653      21.870004      20.619238    
      8500   664.86332     -1831.8644      37.040282     -1794.8241      2311.141       5646.1206      12.591237      21.808662      20.561403    
      9000   694.02726     -1832.8452      38.665038     -1794.1802      206.48691      5662.9376      12.603725      21.830293      20.581797    
      9500   687.48857     -1835.2924      38.30076      -1796.9916     -1681.3515      5658.1633      12.600182      21.824156      20.576011    
     10000   640.1812      -1836.2576      35.665213     -1800.5923      2105.7445      5606.1184      12.56143       21.757035      20.51273     
     10500   625.63521     -1833.5058      34.85484      -1798.651       420.30925      5629.6588      12.578988      21.787446      20.541401    
     11000   667.57431     -1835.4765      37.191314     -1798.2851     -3578.1087      5642.3401      12.588426      21.803793      20.556813    
     11500   643.28039     -1839.7578      35.837872     -1803.9199      1947.549       5572.7624      12.536467      21.713799      20.471966    
     12000   635.02178     -1838.1691      35.377776     -1802.7913     -8353.984       5627.9669      12.577727      21.785263      20.539343    
     12500   651.52106     -1838.2153      36.29697      -1801.9184      3084.2975      5587.5649      12.547558      21.733007      20.490076    
     13000   636.05028     -1841.5473      35.435075     -1806.1123     -1343.1421      5583.9135      12.544824      21.728272      20.485611    
     13500   623.4281      -1841.5584      34.731879     -1806.8265     -4152.7306      5589.6291      12.549103      21.735683      20.492599    
     14000   616.99938     -1842.8821      34.373728     -1808.5083     -1012.8534      5589.4532      12.548971      21.735455      20.492384    
     14500   633.43286     -1846.3741      35.289256     -1811.0848      9300.7288      5519.6494      12.496513      21.644595      20.40672     
     15000   641.55778     -1845.6937      35.741904     -1809.9518     -3793.9638      5577.2812      12.539855      21.719666      20.477497    
     15500   646.11537     -1843.4585      35.995813     -1807.4627     -194.27142      5581.7793      12.543225      21.725503      20.483001    
     16000   671.72397     -1847.5088      37.422496     -1810.0863      1277.1626      5524.6715      12.500302      21.651157      20.412907    
     16500   640.09878     -1848.7509      35.660622     -1813.0903     -5040.5916      5572.4726      12.53625       21.713422      20.471611    
     17000   694.98709     -1849.7152      38.718511     -1810.9967      1438.78        5527.8081      12.502667      21.655254      20.416769    
     17500   646.52819     -1848.679       36.018811     -1812.6602     -2475.5424      5522.4155      12.4986        21.64821       20.410128    
     18000   639.13901     -1851.8141      35.607152     -1816.207      -9420.1406      5568.5131      12.53328       21.708278      20.466761    
     18500   627.661       -1852.439       34.967699     -1817.4713      8320.6564      5492.9119      12.476302      21.609589      20.373716    
     19000   655.51121     -1855.3463      36.519265     -1818.827       4570.8684      5499.9542      12.481632      21.61882       20.382419    
     19500   645.24543     -1852.4579      35.947347     -1816.5105     -6850.672       5567.8974      12.532818      21.707478      20.466007    
     20000   663.97658     -1854.9683      36.990881     -1817.9774      4538.3819      5496.2688      12.478843      21.61399       20.377865    
Loop time of 171.6 on 8 procs for 20000 steps with 432 atoms

Performance: 20.140 ns/day, 1.192 hours/ns, 116.550 timesteps/s, 50.350 katom-step/s
88.3% CPU use with 1 MPI tasks x 8 OpenMP threads

MPI task timing breakdown:
Section |  min time  |  avg time  |  max time  |%varavg| %total
---------------------------------------------------------------
Pair    | 148.83     | 148.83     | 148.83     |   0.0 | 86.73
Neigh   | 0.048938   | 0.048938   | 0.048938   |   0.0 |  0.03
Comm    | 0.16029    | 0.16029    | 0.16029    |   0.0 |  0.09
Output  | 0.002882   | 0.002882   | 0.002882   |   0.0 |  0.00
Modify  | 22.531     | 22.531     | 22.531     |   0.0 | 13.13
Other   |            | 0.03142    |            |       |  0.02

Nlocal:            432 ave         432 max         432 min
Histogram: 1 0 0 0 0 0 0 0 0 0
Nghost:           2644 ave        2644 max        2644 min
Histogram: 1 0 0 0 0 0 0 0 0 0
Neighs:          36032 ave       36032 max       36032 min
Histogram: 1 0 0 0 0 0 0 0 0 0
FullNghs:        72064 ave       72064 max       72064 min
Histogram: 1 0 0 0 0 0 0 0 0 0

Total # of neighbors = 72064
Ave neighs/atom = 166.81481
Neighbor list builds = 55
Dangerous builds = 0
=== STAGE 3: NPT Production at 650 K ===
No /omp style for force computation currently active
Setting up Verlet run ...
  Unit style    : metal
  Current step  : 0
  Time step     : 0.001
Per MPI rank memory allocation (min/avg/max) = 18.85 | 18.85 | 18.85 Mbytes
   Step          Temp          PotEng         KinEng         TotEng         Press          Volume           Lx             Ly             Lz      
         0   663.97658     -1854.9683      36.990881     -1817.9774      4538.3819      5496.2688      12.478843      21.61399       20.377865    
       500   628.78715     -1856.3191      35.030438     -1821.2887      573.74925      5518.9332      12.495972      21.643659      20.405837    
      1000   661.29289     -1855.917       36.841369     -1819.0757     -3318.7677      5536.924       12.509536      21.667151      20.427986    
      1500   664.94014     -1857.3261      37.044562     -1820.2815     -2363.0252      5552.1416      12.520985      21.686983      20.446684    
      2000   691.57842     -1857.5823      38.52861      -1819.0537      7956.9321      5495.9877      12.47863       21.613622      20.377518    
      2500   676.9983      -1860.435       37.716335     -1822.7186      3683.6375      5498.2432      12.480337      21.616578      20.380305    
      3000   653.90714     -1857.2629      36.429901     -1820.833      -79.929729      5525.5297      12.500949      21.652278      20.413964    
      3500   642.34451     -1862.8118      35.785733     -1827.026      -3.3599663      5515.2838      12.493217      21.638887      20.401338    
      4000   630.2959      -1861.2887      35.114492     -1826.1742     -1289.4023      5507.9193      12.487654      21.629251      20.392254    
      4500   645.10787     -1860.5994      35.939684     -1824.6597      2746.7064      5506.0513      12.486242      21.626806      20.389948    
      5000   701.75154     -1860.1791      39.095366     -1821.0838      3305.7456      5491.4809      12.475219      21.607712      20.371947    
      5500   606.30747     -1858.1813      33.77807      -1824.4032     -1967.4339      5528.186       12.502952      21.655748      20.417235    
      6000   641.11603     -1860.2193      35.717294     -1824.502       6540.4262      5481.1779      12.467412      21.594191      20.359198    
      6500   641.53331     -1855.5964      35.740541     -1819.8558     -661.75816      5514.8539      12.492893      21.638325      20.400808    
      7000   664.69802     -1859.3308      37.031073     -1822.2997      860.33335      5521.1916      12.497676      21.64661       20.40862     
      7500   656.34512     -1860.4748      36.565723     -1823.9091      3725.7405      5493.1107      12.476453      21.60985       20.373962    
      8000   661.84242     -1859.3914      36.871984     -1822.5195      512.28711      5517.589       12.494958      21.641901      20.40418     
      8500   678.00588     -1858.8904      37.772468     -1821.1179     -2173.0185      5518.2891      12.495486      21.642817      20.405043    
      9000   631.50641     -1859.8424      35.181931     -1824.6605     -2278.0976      5518.8318      12.495896      21.643526      20.405712    
      9500   616.71998     -1858.607       34.358162     -1824.2489      5472.4341      5490.283       12.474311      21.606141      20.370465    
     10000   667.87648     -1858.8618      37.208149     -1821.6537      1312.1388      5516.657       12.494254      21.640683      20.403031    
     10500   622.95887     -1860.7525      34.705738     -1826.0468     -3555.8498      5494.9408      12.477838      21.612249      20.376224    
     11000   660.63353     -1860.3764      36.804635     -1823.5717     -396.01396      5495.375       12.478167      21.612819      20.376761    
     11500   683.65221     -1861.285       38.087032     -1823.198       3188.5489      5486.9166      12.471761      21.601724      20.366301    
     12000   630.0804      -1859.9342      35.102486     -1824.8317      178.36748      5506.6916      12.486726      21.627644      20.390738    
     12500   668.588       -1862.3837      37.247788     -1825.1359      961.38612      5501.0363      12.48245       21.620238      20.383756    
     13000   659.67681     -1859.5018      36.751336     -1822.7505      6660.5876      5503.7543      12.484506      21.623798      20.387112    
     13500   648.39094     -1859.034       36.122587     -1822.9114      1121.2518      5506.5154      12.486593      21.627413      20.390521    
     14000   610.67573     -1863.9539      34.021431     -1829.9325      5139.9583      5470.0094      12.458938      21.579514      20.345361    
     14500   651.05921     -1858.8494      36.27124      -1822.5782      2251.9377      5514.1581      12.492367      21.637415      20.39995     
     15000   678.80957     -1859.8268      37.817243     -1822.0095      1631.6854      5522.1811      12.498423      21.647904      20.409839    
     15500   622.39944     -1861.1303      34.674572     -1826.4557     -5262.1133      5557.362       12.524909      21.693778      20.45309     
     16000   626.87995     -1862.4183      34.924186     -1827.4941      3906.7419      5492.147       12.475723      21.608586      20.37277     
     16500   646.68674     -1861.0733      36.027644     -1825.0456      8811.0534      5491.0854      12.474919      21.607194      20.371457    
     17000   635.66181     -1860.1261      35.413433     -1824.7127     -4523.0708      5542.4177      12.513672      21.674315      20.43474     
     17500   649.31074     -1861.9039      36.17383      -1825.73        6662.2715      5486.9603      12.471794      21.601782      20.366355    
     18000   637.48736     -1864.0237      35.515136     -1828.5086      6648.9522      5469.5744      12.458608      21.578942      20.344821    
     18500   619.13255     -1860.8161      34.492569     -1826.3236     -2684.2385      5530.6777      12.50483       21.659001      20.420302    
     19000   663.32807     -1861.7077      36.954752     -1824.753      -3303.5754      5513.0298      12.491515      21.635939      20.398559    
     19500   646.26434     -1859.8267      36.004112     -1823.8226     -1762.0934      5531.8951      12.505747      21.66059       20.4218      
     20000   657.92231     -1862.1191      36.65359      -1825.4655      2422.3703      5499.8902      12.481583      21.618736      20.38234     
     20500   632.46982     -1860.9982      35.235604     -1825.7626      9377.4297      5482.1826      12.468173      21.59551       20.360442    
     21000   701.297       -1862.2346      39.070043     -1823.1646      6039.6168      5491.4698      12.47521       21.607698      20.371933    
     21500   617.2016      -1861.4744      34.384994     -1827.0894      4041.9721      5510.8043      12.489834      21.633027      20.395813    
     22000   596.99227     -1863.0201      33.259109     -1829.761      -9895.0098      5541.9755      12.513339      21.673739      20.434197    
     22500   654.02617     -1858.5941      36.436532     -1822.1576     -570.38686      5526.1769      12.501437      21.653124      20.414761    
     23000   657.54139     -1859.2622      36.632369     -1822.6298     -4006.2276      5535.6841      12.508602      21.665534      20.426461    
     23500   679.58219     -1862.7225      37.860287     -1824.8622      10708.734      5462.3245      12.453101      21.569403      20.335828    
     24000   632.1833      -1860.7477      35.219641     -1825.5281      6431.3686      5504.3326      12.484943      21.624555      20.387826    
     24500   637.89677     -1859.9561      35.537945     -1824.4182     -2503.5007      5527.5044      12.502438      21.654857      20.416395    
     25000   629.1636      -1859.6435      35.051411     -1824.5921      835.04682      5527.0581      12.502101      21.654275      20.415846    
     25500   671.93627     -1860.6501      37.434324     -1823.2158     -2689.4595      5522.1883      12.498428      21.647913      20.409848    
     26000   642.14699     -1863.2573      35.774729     -1827.4826      2687.8526      5499.0151      12.480921      21.61759       20.381259    
     26500   615.26118     -1861.126       34.276891     -1826.8491      6099.9382      5520.7764      12.497363      21.646068      20.408108    
     27000   657.73387     -1861.1083      36.643092     -1824.4652     -6124.8964      5546.1172      12.516455      21.679136      20.439286    
     27500   713.0181      -1861.2338      39.723039     -1821.5107     -206.88863      5528.4756      12.50317       21.656126      20.417591    
     28000   667.02401     -1860.285       37.160657     -1823.1244      2572.5459      5517.431       12.494838      21.641695      20.403985    
     28500   591.55902     -1861.9676      32.956417     -1829.0111     -1345.0622      5520.8759      12.497438      21.646198      20.408231    
     29000   588.33456     -1861.2965      32.776779     -1828.5197     -1454.5085      5522.0901      12.498354      21.647785      20.409727    
     29500   639.3715      -1860.7268      35.620104     -1825.1067      2807.9182      5515.3971      12.493303      21.639035      20.401478    
     30000   643.53764     -1863.7916      35.852204     -1827.9394      8291.9         5477.5605      12.464668      21.589439      20.354718    
     30500   641.73027     -1866.034       35.751513     -1830.2825      5934.3186      5473.8756      12.461873      21.584597      20.350153    
     31000   658.78926     -1860.867       36.701889     -1824.1651     -213.70903      5531.939       12.50578       21.660647      20.421854    
     31500   653.84141     -1861.0627      36.426239     -1824.6365      11640.359      5472.6056      12.460909      21.582927      20.348579    
     32000   603.32178     -1862.8515      33.611734     -1829.2398      546.40565      5512.6459      12.491225      21.635437      20.398085    
     32500   661.62169     -1863.7525      36.859687     -1826.8928     -6763.2079      5539.0018      12.5111        21.669861      20.430541    
     33000   618.39681     -1865.6142      34.45158      -1831.1627      3526.6329      5500.3756      12.48195       21.619372      20.38294     
     33500   635.96481     -1865.0199      35.430313     -1829.5896      1890.719       5486.3428      12.471326      21.600971      20.365591    
     34000   629.76305     -1861.6637      35.084807     -1826.5789     -2131.9575      5535.914       12.508775      21.665834      20.426744    
     34500   638.22167     -1859.81        35.556046     -1824.2539      1977.8142      5537.8002      12.510195      21.668294      20.429064    
     35000   659.67428     -1862.3656      36.751195     -1825.6144     -3758.203       5537.7352      12.510147      21.668209      20.428984    
     35500   595.20007     -1865.7091      33.159264     -1832.5499     -3241.5356      5515.0383      12.493032      21.638566      20.401036    
     36000   650.76855     -1860.7104      36.255046     -1824.4553      4879.803       5510.506       12.489609      21.632637      20.395445    
     36500   676.64994     -1862.4519      37.696928     -1824.755       197.15054      5505.0946      12.485519      21.625553      20.388767    
     37000   626.20662     -1866.4611      34.886674     -1831.5744     -883.95625      5505.4091      12.485757      21.625965      20.389155    
     37500   653.33958     -1863.4956      36.398281     -1827.0974      3320.2108      5504.7423      12.485253      21.625092      20.388332    
     38000   697.41249     -1863.6729      38.853633     -1824.8193      3103.838       5482.4045      12.468342      21.595801      20.360717    
     38500   643.61512     -1861.1139      35.856521     -1825.2574     -1098.745       5534.675       12.507842      21.664217      20.42522     
     39000   619.65854     -1862.5763      34.521873     -1828.0544     -4414.391       5526.2154      12.501466      21.653174      20.414808    
     39500   633.92153     -1864.7025      35.31648      -1829.3861      2504.4028      5506.163       12.486327      21.626952      20.390086    
     40000   621.41281     -1861.051       34.619605     -1826.4314      4922.7145      5478.3772      12.465288      21.590512      20.35573     
     40500   670.37634     -1863.5691      37.347418     -1826.2217      4807.8113      5495.0265      12.477903      21.612362      20.37633     
     41000   639.5076      -1861.7242      35.627686     -1826.0965      4082.2743      5499.0828      12.480972      21.617678      20.381343    
     41500   699.32637     -1864.2236      38.960257     -1825.2634     -12106.786      5540.4087      12.512159      21.671696      20.432271    
     42000   668.37222     -1860.3998      37.235767     -1823.164      -3628.9854      5521.5066      12.497914      21.647022      20.409008    
     42500   696.76387     -1864.8065      38.817497     -1825.989       3444.7852      5476.9458      12.464202      21.588631      20.353957    
     43000   650.26378     -1864.5763      36.226925     -1828.3493     -3736.4033      5515.7994      12.493606      21.639561      20.401974    
     43500   638.94306     -1863.1511      35.596235     -1827.5549     -3139.0743      5528.8415      12.503446      21.656603      20.418041    
     44000   640.16639     -1863.7061      35.664388     -1828.0417     -3413.822       5508.503       12.488095      21.630015      20.392974    
     44500   665.00824     -1858.6015      37.048356     -1821.5532     -223.916        5508.3993      12.488017      21.62988       20.392846    
     45000   617.15981     -1862.5053      34.382666     -1828.1226      6720.9115      5480.1473      12.46663       21.592837      20.357922    
     45500   642.10686     -1864.9364      35.772494     -1829.1639      3073.6184      5483.6172      12.469261      21.597393      20.362218    
     46000   632.93391     -1863.7766      35.261458     -1828.5151      63.457582      5515.2095      12.493161      21.63879       20.401247    
     46500   643.45076     -1863.1728      35.847364     -1827.3254     -4616.915       5539.7316      12.51165       21.670813      20.431438    
     47000   688.24559     -1863.5046      38.342934     -1825.1617     -3374.7069      5523.9248      12.499738      21.650182      20.411987    
     47500   673.61621     -1864.1725      37.527915     -1826.6446     -2122.7694      5520.9311      12.49748       21.64627       20.408299    
     48000   625.5627      -1866.743       34.8508       -1831.8922     -1716.0884      5501.7421      12.482984      21.621162      20.384627    
     48500   619.33266     -1863.1939      34.503718     -1828.6902     -512.11006      5521.4828      12.497896      21.646991      20.408979    
     49000   656.716       -1863.196       36.586386     -1826.6096      10.115181      5529.0955      12.503637      21.656935      20.418354    
     49500   692.12578     -1862.7093      38.559104     -1824.1502      2093.8041      5512.0124      12.490747      21.634608      20.397304    
     50000   674.13487     -1859.8807      37.55681      -1822.3239     -164.5072       5520.133       12.496878      21.645227      20.407316    
Loop time of 456.267 on 8 procs for 50000 steps with 432 atoms

Performance: 9.468 ns/day, 2.535 hours/ns, 109.585 timesteps/s, 47.341 katom-step/s
87.8% CPU use with 1 MPI tasks x 8 OpenMP threads

MPI task timing breakdown:
Section |  min time  |  avg time  |  max time  |%varavg| %total
---------------------------------------------------------------
Pair    | 396.27     | 396.27     | 396.27     |   0.0 | 86.85
Neigh   | 0.015155   | 0.015155   | 0.015155   |   0.0 |  0.00
Comm    | 0.40686    | 0.40686    | 0.40686    |   0.0 |  0.09
Output  | 0.006805   | 0.006805   | 0.006805   |   0.0 |  0.00
Modify  | 59.499     | 59.499     | 59.499     |   0.0 | 13.04
Other   |            | 0.07113    |            |       |  0.02

Nlocal:            432 ave         432 max         432 min
Histogram: 1 0 0 0 0 0 0 0 0 0
Nghost:           2594 ave        2594 max        2594 min
Histogram: 1 0 0 0 0 0 0 0 0 0
Neighs:          35654 ave       35654 max       35654 min
Histogram: 1 0 0 0 0 0 0 0 0 0
FullNghs:        71308 ave       71308 max       71308 min
Histogram: 1 0 0 0 0 0 0 0 0 0

Total # of neighbors = 71308
Ave neighs/atom = 165.06481
Neighbor list builds = 14
Dangerous builds = 0

=== FINAL RESULTS: DHCP at 650 K ===
Atoms: 432 | PE/atom: -4.31275762045121 eV/atom
WARNING: Detected non-ASCII characters in input. Will try to continue by replacing with ASCII equivalents where known. (src/input.cpp:479)
Volume: 5520.13301576962 …³ | Area: 270.497752022203 ²
==========================================
DHCP 650 432 -4.31275762045121 5520.13301576962 12.4968776083371 21.6452269518703 20.4073156782336 270.497752022203
Simulation complete!
Total wall time: 0:10:31
