LAMMPS (10 Sep 2025)
  using 8 OpenMP thread(s) per MPI task
Loaded 1 plugins from C:\Users\J.Shiva\AppData\Local\LAMMPS 64-bit 10Sep2025\plugins
using multi-threaded neighbor list subroutines
Reading data file ...
  orthogonal box = (0 0 0) to (15.791533 27.351737 25.787465)
  1 by 1 by 1 MPI processor grid
  reading atoms ...
  432 atoms
  read_data CPU = 0.017 seconds
=== STAGE 1: Energy Minimization ===
Switching to 'neigh_modify every 1 delay 0 check yes' setting during minimization
No /omp style for force computation currently active
Neighbor list info ...
  update: every = 1 steps, delay = 0 steps, check = yes
  max neighbors/atom: 4000, page size: 100000
  master list distance cutoff = 8
  ghost atom cutoff = 8
  binsize = 4, bins = 4 7 7
  2 neighbor lists, perpetual/occasional/extra = 2 0 0
  (1) pair meam, perpetual
      attributes: full, newton on, omp
      pair build: full/bin/atomonly/omp
      stencil: full/bin/3d
      bin: standard
  (2) pair meam, perpetual, half/full from (1)
      attributes: half, newton on, omp
      pair build: halffull/newton/omp
      stencil: none
      bin: none
Setting up cg style minimization ...
  Unit style    : metal
  Current step  : 0
Per MPI rank memory allocation (min/avg/max) = 19.33 | 19.33 | 19.33 Mbytes
   Step          Temp          PotEng         KinEng         TotEng         Press          Volume           Lx             Ly             Lz      
         0   0             -1185.5294      0             -1185.5294     -46600.374      11138.273      15.791533      27.351737      25.787465    
       333   0             -1559.8072      0             -1559.8072     -45732.953      11138.273      15.791533      27.351737      25.787465    
Loop time of 3.5104 on 8 procs for 333 steps with 432 atoms

90.4% CPU use with 1 MPI tasks x 8 OpenMP threads

Minimization stats:
  Stopping criterion = energy tolerance
  Energy initial, next-to-last, final = 
      -1185.5294458195  -1559.80641289134   -1559.8071807187
  Force two-norm initial, final = 45.9543 7.8595095
  Force max component initial, final = 6.292362 3.111273
  Final line search alpha, max atom move = 0.041761272 0.12993072
  Iterations, force evaluations = 333 933

MPI task timing breakdown:
Section |  min time  |  avg time  |  max time  |%varavg| %total
---------------------------------------------------------------
Pair    | 3.2193     | 3.2193     | 3.2193     |   0.0 | 91.71
Neigh   | 0.007301   | 0.007301   | 0.007301   |   0.0 |  0.21
Comm    | 0.005828   | 0.005828   | 0.005828   |   0.0 |  0.17
Output  | 0          | 0          | 0          |   0.0 |  0.00
Modify  | 0.26834    | 0.26834    | 0.26834    |   0.0 |  7.64
Other   |            | 0.009607   |            |       |  0.27

Nlocal:            432 ave         432 max         432 min
Histogram: 1 0 0 0 0 0 0 0 0 0
Nghost:           1723 ave        1723 max        1723 min
Histogram: 1 0 0 0 0 0 0 0 0 0
Neighs:          18140 ave       18140 max       18140 min
Histogram: 1 0 0 0 0 0 0 0 0 0
FullNghs:        36280 ave       36280 max       36280 min
Histogram: 1 0 0 0 0 0 0 0 0 0

Total # of neighbors = 36280
Ave neighs/atom = 83.981481
Neighbor list builds = 8
Dangerous builds = 0
Minimized PE/atom: -3.61066477018217 eV/atom
=== STAGE 2: NPT Equilibration at 400 K ===
No /omp style for force computation currently active
Setting up Verlet run ...
  Unit style    : metal
  Current step  : 0
  Time step     : 0.002
Per MPI rank memory allocation (min/avg/max) = 18.23 | 18.23 | 18.23 Mbytes
   Step          Temp          PotEng         KinEng         TotEng         Press          Volume           Lx             Ly             Lz      
         0   400           -1559.8072      22.284449     -1537.5227     -43595.96       11138.273      15.791533      27.351737      25.787465    
       500   776.74649     -1714.6441      43.273419     -1671.3707     -10685.131      7004.7695      13.529538      23.433846      22.093642    
      1000   456.2466      -1780.0982      25.41801      -1754.6802     -2433.4555      6031.3099      12.871294      22.293735      21.018735    
      1500   368.32959     -1804.4335      20.520055     -1783.9134     -3187.0345      5864.2891      12.751368      22.086018      20.822897    
      2000   372.85761     -1812.9569      20.772316     -1792.1845     -3256.1171      5757.1468      12.673233      21.950684      20.695304    
      2500   379.24699     -1825.7098      21.128275     -1804.5815      1428.7616      5667.4824      12.607096      21.836131      20.587302    
      3000   389.05189     -1826.3418      21.674517     -1804.6673     -1432.4291      5680.2057      12.616523      21.852459      20.602696    
      3500   391.61462     -1833.0007      21.81729      -1811.1834      2706.7181      5636.2675      12.583908      21.795968      20.549436    
      4000   391.71094     -1834.6641      21.822656     -1812.8415      60.099171      5646.5356      12.591545      21.809196      20.561907    
      4500   377.55301     -1835.8322      21.033902     -1814.7983     -2713.266       5650.923       12.594805      21.814843      20.567231    
      5000   421.42554     -1836.3451      23.47809      -1812.867      -3657.5848      5656.1081      12.598657      21.821513      20.57352     
      5500   421.35156     -1838.2971      23.473968     -1814.8231      3859.8697      5623.7071      12.574553      21.779765      20.53416     
      6000   387.66259     -1837.3815      21.597118     -1815.7844      2949.064       5630.2516      12.579429      21.788211      20.542122    
      6500   410.26338     -1837.6481      22.856233     -1814.7919     -2528.7647      5644.5961      12.590103      21.806699      20.559553    
      7000   415.5617      -1836.8717      23.151409     -1813.7203      1478.1535      5656.2856      12.598788      21.821741      20.573735    
      7500   385.62595     -1838.2867      21.483654     -1816.803       2317.1532      5591.3225      12.55037       21.737878      20.494668    
      8000   394.05002     -1838.3802      21.952969     -1816.4272     -4691.5682      5646.0111      12.591155      21.808521      20.56127     
      8500   436.51241     -1838.3781      24.318596     -1814.0595      4865.2261      5606.39        12.561633      21.757387      20.513061    
      9000   418.48506     -1839.4025      23.314273     -1816.0883      686.98739      5618.3552      12.570563      21.772854      20.527644    
      9500   415.13371     -1841.2235      23.127565     -1818.096      -849.66115      5612.4106      12.566128      21.765172      20.520401    
     10000   389.85603     -1841.1593      21.719317     -1819.44        3948.8995      5589.3323      12.54888       21.735298      20.492236    
     10500   388.23013     -1841.4775      21.628736     -1819.8488     -3197.1325      5614.4962      12.567684      21.767868      20.522943    
     11000   393.38739     -1840.7254      21.916053     -1818.8093      4224.0868      5600.6439      12.55734       21.749951      20.506051    
     11500   420.14809     -1841.1141      23.406922     -1817.7072      446.82824      5621.4576      12.572876      21.776861      20.531421    
     12000   400.9581      -1841.3491      22.337826     -1819.0112     -834.3704       5608.8845      12.563496      21.760613      20.516103    
     12500   392.66247     -1842.0654      21.875667     -1820.1898      609.64414      5618.546       12.570705      21.773101      20.527876    
     13000   419.86097     -1843.6653      23.390926     -1820.2744      8286.5758      5587.1679      12.54726       21.732492      20.48959     
     13500   404.97104     -1840.8725      22.561391     -1818.3111      2564.7723      5604.617       12.560309      21.755093      20.510898    
     14000   385.38382     -1842.7348      21.470165     -1821.2646     -2225.8152      5624.6083      12.575225      21.780929      20.535256    
     14500   369.92161     -1842.2427      20.608748     -1821.6339      1218.1363      5611.2168      12.565237      21.763629      20.518946    
     15000   394.73995     -1841.6501      21.991406     -1819.6587     -2272.2145      5606.9098      12.562021      21.758059      20.513695    
     15500   419.61778     -1842.5699      23.377377     -1819.1925      1277.8821      5585.8007      12.546237      21.73072       20.487919    
     16000   405.36767     -1841.6751      22.583488     -1819.0916      1372.6521      5599.3919      12.556404      21.74833       20.504522    
     16500   403.34904     -1843.6168      22.471028     -1821.1458      3354.576       5579.6798      12.541652      21.722779      20.480433    
     17000   391.36838     -1843.4062      21.803572     -1821.6027      3295.8427      5581.8664      12.543291      21.725616      20.483108    
     17500   416.27386     -1843.0648      23.191084     -1819.8737     -45.82972       5600.0458      12.556893      21.749177      20.50532     
     18000   388.9607      -1839.3374      21.669437     -1817.668      -1869.0129      5603.8575      12.559741      21.75411       20.509972    
     18500   389.39667     -1840.3773      21.693725     -1818.6836     -1317.9137      5600.8664      12.557506      21.750239      20.506322    
     19000   394.91071     -1843.9402      22.000919     -1821.9393     -716.26898      5580.6034      12.542344      21.723978      20.481563    
     19500   408.69652     -1841.6529      22.768942     -1818.8839      8814.0856      5562.7873      12.528983      21.700835      20.459744    
     20000   407.6946      -1842.34        22.713124     -1819.6269     -1000.3909      5601.2992      12.55783       21.750799      20.50685     
Loop time of 175.287 on 8 procs for 20000 steps with 432 atoms

Performance: 19.716 ns/day, 1.217 hours/ns, 114.099 timesteps/s, 49.291 katom-step/s
88.6% CPU use with 1 MPI tasks x 8 OpenMP threads

MPI task timing breakdown:
Section |  min time  |  avg time  |  max time  |%varavg| %total
---------------------------------------------------------------
Pair    | 151.71     | 151.71     | 151.71     |   0.0 | 86.55
Neigh   | 0.022422   | 0.022422   | 0.022422   |   0.0 |  0.01
Comm    | 0.16225    | 0.16225    | 0.16225    |   0.0 |  0.09
Output  | 0.00325    | 0.00325    | 0.00325    |   0.0 |  0.00
Modify  | 23.357     | 23.357     | 23.357     |   0.0 | 13.32
Other   |            | 0.02899    |            |       |  0.02

Nlocal:            432 ave         432 max         432 min
Histogram: 1 0 0 0 0 0 0 0 0 0
Nghost:           2569 ave        2569 max        2569 min
Histogram: 1 0 0 0 0 0 0 0 0 0
Neighs:          35261 ave       35261 max       35261 min
Histogram: 1 0 0 0 0 0 0 0 0 0
FullNghs:        70522 ave       70522 max       70522 min
Histogram: 1 0 0 0 0 0 0 0 0 0

Total # of neighbors = 70522
Ave neighs/atom = 163.24537
Neighbor list builds = 26
Dangerous builds = 0
=== STAGE 3: NPT Production at 400 K ===
No /omp style for force computation currently active
Setting up Verlet run ...
  Unit style    : metal
  Current step  : 0
  Time step     : 0.001
Per MPI rank memory allocation (min/avg/max) = 18.63 | 18.63 | 18.63 Mbytes
   Step          Temp          PotEng         KinEng         TotEng         Press          Volume           Lx             Ly             Lz      
         0   407.6946      -1842.34        22.713124     -1819.6269     -1000.3909      5601.2992      12.55783       21.750799      20.50685     
       500   404.83631     -1842.1887      22.553885     -1819.6348     -874.73787      5589.6523      12.54912       21.735713      20.492627    
      1000   376.77883     -1844.1911      20.990772     -1823.2003     -1160.8962      5589.6224      12.549097      21.735674      20.49259     
      1500   406.20638     -1843.8904      22.630213     -1821.2601     -1993.8562      5619.2912      12.571261      21.774063      20.528784    
      2000   386.11145     -1841.9599      21.510702     -1820.4492      4267.128       5589.9009      12.549306      21.736035      20.492931    
      2500   389.75527     -1841.3357      21.713704     -1819.622      -4209.8033      5633.459       12.581818      21.792347      20.546022    
      3000   400.21229     -1842.9462      22.296276     -1820.6499     -8326.5055      5630.3288      12.579487      21.78831       20.542216    
      3500   400.52815     -1842.7535      22.313873     -1820.4396     -778.78069      5608.0805      12.562896      21.759573      20.515123    
      4000   398.27065     -1841.6575      22.188105     -1819.4693      3967.2301      5587.4982      12.547508      21.732921      20.489994    
      4500   417.85216     -1842.6023      23.279013     -1819.3233     -6394.8229      5625.177       12.575649      21.781663      20.535949    
      5000   402.4774      -1842.9128      22.422468     -1820.4904     -5567.3581      5622.8152      12.573889      21.778614      20.533074    
      5500   394.79023     -1842.9841      21.994207     -1820.9899     -436.84269      5598.0525      12.555403      21.746596      20.502887    
      6000   427.96466     -1842.1116      23.842391     -1818.2692      4692.7111      5576.7966      12.539492      21.719037      20.476904    
      6500   406.4651      -1842.6317      22.644627     -1819.987      -644.73105      5600.1557      12.556975      21.749319      20.505455    
      7000   382.17006     -1842.0417      21.291123     -1820.7506      425.87647      5601.3021      12.557832      21.750803      20.506854    
      7500   411.14124     -1843.9303      22.90514      -1821.0252     -2382.205       5606.3872      12.561631      21.757383      20.513057    
      8000   413.51298     -1842.516       23.037272     -1819.4788      3270.5519      5582.8692      12.544042      21.726917      20.484334    
      8500   425.64978     -1841.5936      23.713427     -1817.8801     -1109.7238      5619.9911      12.571783      21.774967      20.529636    
      9000   381.8084      -1841.9527      21.270975     -1820.6817     -1924.9469      5617.4515      12.569889      21.771687      20.526543    
      9500   400.61284     -1843.0486      22.318591     -1820.73       -4736.9326      5616.9786      12.569536      21.771076      20.525967    
     10000   413.15018     -1842.4245      23.01706      -1819.4075      2592.8173      5584.3968      12.545186      21.728899      20.486202    
     10500   370.44504     -1841.734       20.637909     -1821.0961      5845.4029      5574.3602      12.537665      21.715874      20.473922    
     11000   356.48283     -1841.7208      19.860059     -1821.8607     -5637.7627      5631.4747      12.58034       21.789788      20.543609    
     11500   395.75661     -1843.084       22.048045     -1821.036       4160.0392      5561.2167      12.527804      21.698793      20.457818    
     12000   397.83757     -1843.3298      22.163978     -1821.1658      4576.959       5589.3265      12.548876      21.735291      20.492229    
     12500   411.61991     -1842.3709      22.931807     -1819.4391      841.20799      5588.0011      12.547884      21.733573      20.490609    
     13000   358.22353     -1843.0379      19.957035     -1823.0808     -4966.6571      5611.0383      12.565104      21.763398      20.518729    
     13500   399.06242     -1843.8584      22.232215     -1821.6261      3411.1204      5584.726       12.545432      21.729326      20.486605    
     14000   390.50572     -1841.9443      21.755512     -1820.1888      4177.0087      5580.1969      12.54204       21.72345       20.481065    
     14500   382.19247     -1842.1948      21.292372     -1820.9024     -2135.9597      5594.7239      12.552914      21.742285      20.498823    
     15000   379.01285     -1843.1208      21.115232     -1822.0056      6622.1016      5575.8559      12.538787      21.717816      20.475753    
     15500   382.83535     -1844.9297      21.328187     -1823.6015     -2991.8675      5589.6923      12.54915       21.735765      20.492676    
     16000   399.90043     -1843.8739      22.278902     -1821.595       37.110896      5596.3369      12.55412       21.744374      20.500793    
     16500   397.50581     -1842.6341      22.145495     -1820.4886     -1513.7601      5607.3971      12.562385      21.75869       20.514289    
     17000   427.49276     -1843.8573      23.816102     -1820.0412      2432.7415      5592.3016      12.551102      21.739147      20.495864    
     17500   407.02453     -1842.5858      22.675794     -1819.91       -96.085157      5591.7234      12.55067       21.738397      20.495158    
     18000   399.84443     -1843.6319      22.275782     -1821.3561     -3295.8305      5619.1254      12.571138      21.773849      20.528582    
     18500   398.827       -1844.524       22.2191       -1822.3049      3087.4698      5575.0177      12.538158      21.716727      20.474727    
     19000   390.93928     -1843.699       21.779666     -1821.9193     -249.87268      5603.3415      12.559356      21.753442      20.509342    
     19500   407.93802     -1842.2043      22.726685     -1819.4776      4535.6086      5572.8588      12.53654       21.713924      20.472084    
     20000   387.08408     -1842.5263      21.564888     -1820.9614     -4068.6574      5613.6306      12.567039      21.766749      20.521888    
     20500   396.77727     -1844.2876      22.104907     -1822.1827      1500.0624      5598.0971      12.555436      21.746654      20.502942    
     21000   376.22384     -1843.7323      20.959852     -1822.7725     -3552.2476      5617.3855      12.56984       21.771601      20.526463    
     21500   384.11352     -1843.2328      21.399395     -1821.8334     -1336.7155      5608.5608      12.563254      21.760194      20.515708    
     22000   411.8735      -1843.6672      22.945935     -1820.7212      1149.1718      5586.4599      12.54673       21.731574      20.488725    
     22500   409.92728     -1843.6549      22.837509     -1820.8174     -2729.8512      5613.697       12.567088      21.766835      20.521969    
     23000   385.43317     -1846.173       21.472915     -1824.7001      1567.5828      5573.2281      12.536817      21.714403      20.472536    
     23500   381.7869      -1842.1786      21.269777     -1820.9089     -1514.4643      5611.7243      12.565616      21.764285      20.519565    
     24000   397.40615     -1842.9849      22.139943     -1820.8449     -1501.7159      5608.167       12.56296       21.759685      20.515228    
     24500   397.60158     -1844.8177      22.15083      -1822.6669     -5942.4902      5600.404       12.557161      21.74964       20.505758    
     25000   396.51207     -1844.5192      22.090133     -1822.429       4122.0296      5566.4664      12.531745      21.705618      20.464253    
     25500   393.96012     -1842.9396      21.94796      -1820.9916     -4051.3622      5608.588       12.563275      21.76023       20.515741    
     26000   397.97773     -1842.5491      22.171786     -1820.3773      2505.956       5593.8494      12.55226       21.741152      20.497755    
     26500   397.27355     -1843.2802      22.132555     -1821.1476      7029.4297      5569.0615      12.533692      21.708991      20.467433    
     27000   390.67547     -1843.6853      21.764969     -1821.9203     -2931.3701      5594.3688      12.552648      21.741825      20.498389    
     27500   435.24295     -1843.4236      24.247873     -1819.1757      2964.3793      5593.8063      12.552228      21.741096      20.497702    
     28000   393.20528     -1841.6953      21.905907     -1819.7894      750.40494      5597.2427      12.554798      21.745547      20.501899    
     28500   390.95186     -1842.9123      21.780367     -1821.1319      6548.7682      5572.676       12.536403      21.713686      20.47186     
     29000   381.77605     -1842.6502      21.269172     -1821.3811     -4057.0374      5599.2417      12.556292      21.748136      20.504339    
     29500   404.60141     -1843.6777      22.540799     -1821.1369     -636.68605      5599.3096      12.556343      21.748224      20.504422    
     30000   432.7311      -1842.4914      24.107936     -1818.3834      4267.8309      5591.2592      12.550322      21.737796      20.49459     
     30500   407.97158     -1844.9449      22.728555     -1822.2164     -50.762777      5595.0836      12.553183      21.742751      20.499262    
     31000   413.95809     -1844.1052      23.06207      -1821.0432      2602.3772      5589.687       12.549146      21.735758      20.492669    
     31500   438.65817     -1844.2093      24.438139     -1819.7712      2972.021       5578.088       12.54046       21.720713      20.478485    
     32000   420.01465     -1843.4069      23.399488     -1820.0074      1253.6551      5588.3826      12.54817       21.734067      20.491075    
     32500   407.78956     -1843.4346      22.718414     -1820.7161     -1777.817       5611.2062      12.565229      21.763615      20.518933    
     33000   387.12115     -1844.3633      21.566954     -1822.7964      470.97468      5591.2991      12.550352      21.737847      20.494639    
     33500   394.44969     -1843.2273      21.975235     -1821.252      -2681.1478      5608.7907      12.563426      21.760492      20.515988    
     34000   386.97108     -1841.6994      21.558593     -1820.1408     -1861.0716      5603.2295      12.559272      21.753298      20.509206    
     34500   405.43256     -1843.9093      22.587103     -1821.3222     -6672.6405      5638.6647      12.585692      21.799058      20.552349    
     35000   378.76862     -1842.5314      21.101625     -1821.4298      1587.5541      5614.7898      12.567903      21.768247      20.5233      
     35500   420.5152      -1842.5425      23.427374     -1819.1151     -474.33116      5599.8776      12.556767      21.748959      20.505115    
     36000   401.28983     -1842.369       22.356307     -1820.0127      2187.2105      5582.7435      12.543947      21.726754      20.48418     
     36500   411.20008     -1843.9579      22.908418     -1821.0495      1817.2997      5573.6721      12.53715       21.71498       20.47308     
     37000   382.34239     -1844.1638      21.300723     -1822.8631     -4172.9799      5608.4434      12.563167      21.760043      20.515565    
     37500   377.8843      -1844.9236      21.052358     -1823.8713      694.62423      5587.6846      12.547647      21.733162      20.490222    
     38000   394.50093     -1842.4283      21.978089     -1820.4502      747.50847      5606.1058      12.561421      21.757019      20.512714    
     38500   395.11093     -1842.1591      22.012073     -1820.147       2785.8144      5599.1551      12.556227      21.748024      20.504233    
     39000   369.70253     -1844.3618      20.596543     -1823.7653      3116.8954      5593.4679      12.551975      21.740658      20.497289    
     39500   384.98445     -1843.8072      21.447916     -1822.3593      3892.962       5577.2823      12.539856      21.719667      20.477499    
     40000   413.85015     -1844.9499      23.056056     -1821.8938      1968.9419      5572.9906      12.536639      21.714095      20.472245    
     40500   399.15834     -1842.3453      22.237559     -1820.1077      4113.5768      5574.6631      12.537893      21.716267      20.474293    
     41000   422.14649     -1843.1173      23.518255     -1819.5991      5920.8482      5570.2948      12.534617      21.710593      20.468944    
     41500   372.17765     -1843.8554      20.734434     -1823.121      -3578.6785      5602.0696      12.558406      21.751796      20.50779     
     42000   389.65982     -1844.9491      21.708386     -1823.2407      14.56319       5582.961       12.54411       21.727037      20.484447    
     42500   402.6129      -1843.556       22.430017     -1821.126       7895.6493      5552.8471      12.521516      21.687902      20.44755     
     43000   408.93383     -1844.5955      22.782163     -1821.8134     -2188.9642      5602.3229      12.558595      21.752124      20.508099    
     43500   377.34534     -1843.2019      21.022332     -1822.1796     -10223.722      5621.0758      12.572592      21.776368      20.530956    
     44000   429.12697     -1844.0262      23.907145     -1820.1191      2260.0689      5580.0957      12.541964      21.723319      20.480941    
     44500   417.88132     -1843.6128      23.280638     -1820.3322      1449.754       5603.3223      12.559342      21.753418      20.509319    
     45000   372.53519     -1841.8291      20.754353     -1821.0747     -4846.0108      5618.6224      12.570762      21.773199      20.527969    
     45500   394.39912     -1842.308       21.972418     -1820.3355      106.28765      5607.2429      12.56227       21.75849       20.514101    
     46000   388.82412     -1843.5503      21.661828     -1821.8884      4760.3369      5571.7116      12.535679      21.712434      20.470679    
     46500   413.64271     -1843.4219      23.044499     -1820.3774     -6230.1296      5626.9006      12.576933      21.783887      20.538046    
     47000   366.12869     -1843.5177      20.39744      -1823.1203     -2802.0017      5608.1815      12.562971      21.759704      20.515246    
     47500   373.02279     -1844.5983      20.781518     -1823.8168      6624.9191      5540.5409      12.512259      21.671868      20.432433    
     48000   413.77862     -1844.2214      23.052071     -1821.1693      2953.0333      5579.6306      12.541616      21.722715      20.480372    
     48500   392.61083     -1844.3831      21.87279      -1822.5103     -1132.4883      5587.515       12.54752       21.732942      20.490015    
     49000   389.0054      -1843.6489      21.671927     -1821.977      -2230.4922      5606.9868      12.562079      21.758159      20.513789    
     49500   407.60842     -1843.4979      22.708323     -1820.7896      1541.0953      5589.4658      12.54898       21.735471      20.492399    
     50000   379.44912     -1844.1282      21.139536     -1822.9886      636.31843      5591.0502      12.550166      21.737525      20.494335    
Loop time of 436.99 on 8 procs for 50000 steps with 432 atoms

Performance: 9.886 ns/day, 2.428 hours/ns, 114.419 timesteps/s, 49.429 katom-step/s
88.3% CPU use with 1 MPI tasks x 8 OpenMP threads

MPI task timing breakdown:
Section |  min time  |  avg time  |  max time  |%varavg| %total
---------------------------------------------------------------
Pair    | 380.01     | 380.01     | 380.01     |   0.0 | 86.96
Neigh   | 0          | 0          | 0          |   0.0 |  0.00
Comm    | 0.40108    | 0.40108    | 0.40108    |   0.0 |  0.09
Output  | 0.006954   | 0.006954   | 0.006954   |   0.0 |  0.00
Modify  | 56.507     | 56.507     | 56.507     |   0.0 | 12.93
Other   |            | 0.06795    |            |       |  0.02

Nlocal:            432 ave         432 max         432 min
Histogram: 1 0 0 0 0 0 0 0 0 0
Nghost:           2576 ave        2576 max        2576 min
Histogram: 1 0 0 0 0 0 0 0 0 0
Neighs:          35305 ave       35305 max       35305 min
Histogram: 1 0 0 0 0 0 0 0 0 0
FullNghs:        70610 ave       70610 max       70610 min
Histogram: 1 0 0 0 0 0 0 0 0 0

Total # of neighbors = 70610
Ave neighs/atom = 163.44907
Neighbor list builds = 0
Dangerous builds = 0

=== FINAL RESULTS: DHCP at 400 K ===
Atoms: 432 | PE/atom: -4.26830879724066 eV/atom
WARNING: Detected non-ASCII characters in input. Will try to continue by replacing with ASCII equivalents where known. (src/input.cpp:479)
Volume: 5591.05023176749 …³ | Area: 272.809544909112 ²
==========================================
DHCP 400 432 -4.26830879724066 5591.05023176749 12.5501659034218 21.7375249864012 20.4943350997128 272.809544909112
Simulation complete!
Total wall time: 0:10:15
