LAMMPS (10 Sep 2025)
  using 8 OpenMP thread(s) per MPI task
Loaded 1 plugins from C:\Users\harsh\Downloads\LAMMPS 64-bit 10Sep2025\plugins
using multi-threaded neighbor list subroutines
Reading data file ...
  orthogonal box = (0 0 0) to (15.750804 27.281192 25.720954)
  1 by 1 by 1 MPI processor grid
  reading atoms ...
  432 atoms
  read_data CPU = 0.003 seconds
=== STAGE 1: Energy Minimization ===
Switching to 'neigh_modify every 1 delay 0 check yes' setting during minimization
No /omp style for force computation currently active
Neighbor list info ...
  update: every = 1 steps, delay = 0 steps, check = yes
  max neighbors/atom: 4000, page size: 100000
  master list distance cutoff = 8
  ghost atom cutoff = 8
  binsize = 4, bins = 4 7 7
  2 neighbor lists, perpetual/occasional/extra = 2 0 0
  (1) pair meam, perpetual
      attributes: full, newton on, omp
      pair build: full/bin/atomonly/omp
      stencil: full/bin/3d
      bin: standard
  (2) pair meam, perpetual, half/full from (1)
      attributes: half, newton on, omp
      pair build: halffull/newton/omp
      stencil: none
      bin: none
Setting up cg style minimization ...
  Unit style    : metal
  Current step  : 0
Per MPI rank memory allocation (min/avg/max) = 19.38 | 19.38 | 19.38 Mbytes
   Step          Temp          PotEng         KinEng         TotEng         Press          Volume           Lx             Ly             Lz      
         0   0             -1091.0252      0             -1091.0252     -140904.24      11052.312      15.750804      27.281192      25.720954    
        95   0             -1432.9922      0             -1432.9922     -59275.967      11052.312      15.750804      27.281192      25.720954    
Loop time of 0.802315 on 8 procs for 95 steps with 432 atoms

95.4% CPU use with 1 MPI tasks x 8 OpenMP threads

Minimization stats:
  Stopping criterion = energy tolerance
  Energy initial, next-to-last, final = 
     -1091.02518468556  -1432.99076923064  -1432.99220173935
  Force two-norm initial, final = 6.2281798 15.318753
  Force max component initial, final = 0.87140266 5.1639993
  Final line search alpha, max atom move = 0.021720082 0.11216249
  Iterations, force evaluations = 95 224

MPI task timing breakdown:
Section |  min time  |  avg time  |  max time  |%varavg| %total
---------------------------------------------------------------
Pair    | 0.73573    | 0.73573    | 0.73573    |   0.0 | 91.70
Neigh   | 0.003093   | 0.003093   | 0.003093   |   0.0 |  0.39
Comm    | 0.001343   | 0.001343   | 0.001343   |   0.0 |  0.17
Output  | 0          | 0          | 0          |   0.0 |  0.00
Modify  | 0.058392   | 0.058392   | 0.058392   |   0.0 |  7.28
Other   |            | 0.00376    |            |       |  0.47

Nlocal:            432 ave         432 max         432 min
Histogram: 1 0 0 0 0 0 0 0 0 0
Nghost:           1869 ave        1869 max        1869 min
Histogram: 1 0 0 0 0 0 0 0 0 0
Neighs:          17516 ave       17516 max       17516 min
Histogram: 1 0 0 0 0 0 0 0 0 0
FullNghs:        35032 ave       35032 max       35032 min
Histogram: 1 0 0 0 0 0 0 0 0 0

Total # of neighbors = 35032
Ave neighs/atom = 81.092593
Neighbor list builds = 4
Dangerous builds = 0
Minimized PE/atom: -3.31711157810034 eV/atom
=== STAGE 2: NPT Equilibration at 200 K ===
No /omp style for force computation currently active
Setting up Verlet run ...
  Unit style    : metal
  Current step  : 0
  Time step     : 0.002
Per MPI rank memory allocation (min/avg/max) = 18.26 | 18.26 | 18.26 Mbytes
   Step          Temp          PotEng         KinEng         TotEng         Press          Volume           Lx             Ly             Lz      
         0   200           -1432.9922      11.142224     -1421.85       -58199.16       11052.312      15.750804      27.281192      25.720954    
       500   672.93345     -1837.1338      37.489878     -1799.6439     -3676.7685      5198.765       12.249501      21.216758      20.003351    
      1000   271.50233     -1911.5222      15.1257       -1896.3965     -3669.625       4865.2913      11.981778      20.753049      19.566162    
      1500   187.84942     -1932.038       10.465302     -1921.5727      345.30362      4795.2234      11.923981      20.652941      19.47178     
      2000   178.53957     -1938.8403      9.9466397     -1928.8937      277.27623      4786.3752      11.916643      20.640231      19.459796    
      2500   205.33248     -1938.778       11.439303     -1927.3387      1859.3257      4789.3621      11.919121      20.644523      19.463843    
      3000   230.86303     -1941.7649      12.861639     -1928.9032     -486.54454      4777.739       11.909471      20.627809      19.448085    
      3500   199.53925     -1945.2522      11.116556     -1934.1356     -2299.8992      4772.0249      11.904721      20.619582      19.440329    
      4000   182.45347     -1946.1406      10.164687     -1935.976       2251.0152      4763.3902      11.897537      20.607138      19.428596    
      4500   189.87553     -1946.6993      10.578179     -1936.1211      3184.9051      4752.8894      11.888788      20.591984      19.414309    
      5000   210.9933      -1945.5747      11.754674     -1933.8201      6016.0804      4756.3243      11.891651      20.596944      19.418985    
      5500   204.52096     -1948.4216      11.394092     -1937.0275     -4468.4186      4765.499       11.899292      20.610179      19.431463    
      6000   203.64687     -1950.8524      11.345396     -1939.507       656.09174      4740.5016      11.87845       20.574079      19.397427    
      6500   214.01942     -1952.1905      11.923262     -1940.2672      5941.1272      4719.5069      11.860888      20.543661      19.368749    
      7000   202.35735     -1951.4798      11.273555     -1940.2062     -6232.4165      4749.9513      11.886337      20.58774       19.410308    
      7500   203.15112     -1955.3118      11.317777     -1943.9941      1448.3571      4713.4451      11.855808      20.534862      19.360453    
      8000   190.15724     -1955.5988      10.593874     -1945.005      -300.49324      4726.5937      11.866822      20.553939      19.378439    
      8500   198.18168     -1955.1024      11.040924     -1944.0615     -550.77875      4716.2294      11.858142      20.538904      19.364265    
      9000   220.29525     -1955.3328      12.272896     -1943.0599     -2878.5336      4728.3659      11.868305      20.556507      19.380861    
      9500   199.24018     -1954.5084      11.099894     -1943.4085      1298.8866      4722.1834      11.86313       20.547544      19.37241     
     10000   203.56583     -1956.2179      11.340881     -1944.877      -621.00728      4716.6672      11.858509      20.53954       19.364864    
     10500   193.31157     -1956.114       10.769605     -1945.3444      1327.3438      4716.763       11.858589      20.539679      19.364995    
     11000   203.95798     -1956.4476      11.362728     -1945.0848     -5200.7571      4733.3186      11.872447      20.563682      19.387625    
     11500   203.73641     -1955.8054      11.350384     -1944.455      -1040.3811      4717.8645      11.859512      20.541278      19.366502    
     12000   204.32481     -1955.509       11.383165     -1944.1258     -3001.4273      4729.9964      11.869669      20.55887       19.383088    
     12500   199.65029     -1956.2265      11.122742     -1945.1038     -2359.1227      4718.7931      11.86029       20.542625      19.367773    
     13000   192.18192     -1956.2151      10.70667      -1945.5084      6008.4502      4699.6966      11.844269      20.514876      19.341611    
     13500   201.75232     -1955.7524      11.239848     -1944.5126     -1895.7681      4725.1065      11.865577      20.551783      19.376406    
     14000   208.74109     -1955.8094      11.629201     -1944.1802     -3760.8099      4725.7696      11.866132      20.552744      19.377313    
     14500   209.00536     -1956.443       11.643923     -1944.799       4772.0627      4709.1524      11.852208      20.528626      19.354574    
     15000   183.59583     -1955.7733      10.22833      -1945.5449      446.58367      4720.368       11.861609      20.54491       19.369927    
     15500   204.68089     -1956.6729      11.403002     -1945.2699      2323.4179      4717.8957      11.859538      20.541323      19.366545    
     16000   197.92077     -1955.3486      11.026388     -1944.3222      478.71997      4720.4205      11.861653      20.544986      19.369999    
     16500   207.93046     -1955.5829      11.584039     -1943.9989     -3541.3503      4730.3476      11.869963      20.559378      19.383568    
     17000   192.90125     -1955.5715      10.746745     -1944.8248      3115.3404      4710.6091      11.85343       20.530742      19.35657     
     17500   190.07413     -1956.0724      10.589243     -1945.4832     -660.63109      4722.6936      11.863557      20.548284      19.373108    
     18000   193.74712     -1955.8055      10.79387      -1945.0117     -2879.6394      4729.7121      11.869431      20.558458      19.3827      
     18500   214.84009     -1956.0914      11.968982     -1944.1225      5606.4862      4717.7052      11.859379      20.541046      19.366284    
     19000   212.88116     -1956.5472      11.859848     -1944.6873     -1991.2786      4724.9074      11.865411      20.551494      19.376134    
     19500   199.8088      -1956.4449      11.131573     -1945.3133     -1960.8457      4728.5349      11.868446      20.556752      19.381092    
     20000   196.84125     -1956.2516      10.966247     -1945.2853      4646.2448      4711.0522      11.853801      20.531386      19.357176    
Loop time of 201.15 on 8 procs for 20000 steps with 432 atoms

Performance: 17.181 ns/day, 1.397 hours/ns, 99.428 timesteps/s, 42.953 katom-step/s
90.8% CPU use with 1 MPI tasks x 8 OpenMP threads

MPI task timing breakdown:
Section |  min time  |  avg time  |  max time  |%varavg| %total
---------------------------------------------------------------
Pair    | 176.97     | 176.97     | 176.97     |   0.0 | 87.98
Neigh   | 0.022916   | 0.022916   | 0.022916   |   0.0 |  0.01
Comm    | 0.17188    | 0.17188    | 0.17188    |   0.0 |  0.09
Output  | 0.002541   | 0.002541   | 0.002541   |   0.0 |  0.00
Modify  | 23.948     | 23.948     | 23.948     |   0.0 | 11.91
Other   |            | 0.03589    |            |       |  0.02

Nlocal:            432 ave         432 max         432 min
Histogram: 1 0 0 0 0 0 0 0 0 0
Nghost:           2844 ave        2844 max        2844 min
Histogram: 1 0 0 0 0 0 0 0 0 0
Neighs:          41830 ave       41830 max       41830 min
Histogram: 1 0 0 0 0 0 0 0 0 0
FullNghs:        83660 ave       83660 max       83660 min
Histogram: 1 0 0 0 0 0 0 0 0 0

Total # of neighbors = 83660
Ave neighs/atom = 193.65741
Neighbor list builds = 25
Dangerous builds = 0
=== STAGE 3: NPT Production at 200 K ===
No /omp style for force computation currently active
Setting up Verlet run ...
  Unit style    : metal
  Current step  : 0
  Time step     : 0.001
Per MPI rank memory allocation (min/avg/max) = 19 | 19 | 19 Mbytes
   Step          Temp          PotEng         KinEng         TotEng         Press          Volume           Lx             Ly             Lz      
         0   196.84125     -1956.2516      10.966247     -1945.2853      4646.2448      4711.0522      11.853801      20.531386      19.357176    
       500   201.00121     -1956.3479      11.198003     -1945.1499      3079.7343      4712.74        11.855217      20.533838      19.359488    
      1000   196.75177     -1955.2299      10.961262     -1944.2686      4346.8897      4714.9015      11.857029      20.536976      19.362447    
      1500   202.08224     -1955.9611      11.258229     -1944.7029     -349.40145      4722.0164      11.86299       20.547301      19.372182    
      2000   205.1175      -1956.8975      11.427326     -1945.4702     -762.76776      4716.7257      11.858558      20.539625      19.364944    
      2500   189.22012     -1956.7268      10.541665     -1946.1852      843.50251      4719.151       11.86059       20.543144      19.368262    
      3000   197.30769     -1956.6003      10.992233     -1945.608      -1624.3428      4725.478       11.865888      20.552321      19.376914    
      3500   203.39205     -1956.5685      11.3312       -1945.2373     -914.09243      4723.0732      11.863875      20.548834      19.373627    
      4000   197.34792     -1955.4241      10.994474     -1944.4297      1968.0734      4721.7367      11.862756      20.546896      19.371799    
      4500   208.0738      -1955.7711      11.592025     -1944.179      -3109.6039      4728.7781      11.86865       20.557104      19.381424    
      5000   199.68316     -1956.1244      11.124573     -1944.9999      2075.2399      4714.0098      11.856281      20.535682      19.361226    
      5500   201.12639     -1956.4231      11.204977     -1945.2181      111.13601      4721.04        11.862172      20.545885      19.370846    
      6000   224.71114     -1956.6466      12.51891      -1944.1277      2119.3819      4713.4205      11.855787      20.534826      19.36042     
      6500   201.44535     -1955.5906      11.222746     -1944.3679     -3048.147       4729.1381      11.868951      20.557626      19.381916    
      7000   201.90546     -1956.4072      11.24838      -1945.1588      6577.561       4709.2433      11.852284      20.528758      19.354699    
      7500   200.3926      -1956.8941      11.164097     -1945.73       -194.16022      4727.2512      11.867372      20.554892      19.379338    
      8000   188.58188     -1956.9074      10.506108     -1946.4013     -8348.1263      4743.4546      11.880916      20.57835       19.401454    
      8500   206.5007      -1955.9721      11.504386     -1944.4678     -2041.8133      4735.9864      11.874677      20.567544      19.391267    
      9000   196.39496     -1955.7936      10.941384     -1944.8522     -1231.9739      4726.5374      11.866775      20.553857      19.378362    
      9500   190.67682     -1955.5845      10.62282      -1944.9617     -5744.7528      4738.9517      11.877155      20.571836      19.395313    
     10000   182.50338     -1956.5912      10.167468     -1946.4237      1367.4917      4718.2892      11.859868      20.541894      19.367083    
     10500   197.66292     -1956.7856      11.012023     -1945.7736      3888.195       4714.3274      11.856548      20.536143      19.361661    
     11000   199.72446     -1956.6281      11.126874     -1945.5012     -4466.1083      4734.6419      11.873554      20.565598      19.389432    
     11500   194.0417      -1955.8911      10.810281     -1945.0808     -596.32486      4723.2659      11.864036      20.549114      19.37389     
     12000   215.01571     -1956.1584      11.978767     -1944.1796      2850.7141      4719.2874      11.860704      20.543342      19.368449    
     12500   204.15947     -1956.1468      11.373953     -1944.7728      666.75891      4723.4461      11.864187      20.549375      19.374137    
     13000   190.6415      -1955.6489      10.620852     -1945.028      -1404.1275      4732.5549      11.871809      20.562576      19.386582    
     13500   181.40288     -1957.153       10.106158     -1947.0469      4303.6555      4711.6244      11.854281      20.532217      19.35796     
     14000   202.96955     -1955.8992      11.307661     -1944.5916      4088.1925      4712.8643      11.855321      20.534018      19.359658    
     14500   201.93667     -1956.0334      11.250118     -1944.7832     -2147.1979      4724.958       11.865453      20.551567      19.376203    
     15000   202.359       -1956.7709      11.273647     -1945.4973      2808.1837      4711.6655      11.854316      20.532277      19.358016    
     15500   185.15423     -1956.3539      10.31515      -1946.0387      4950.58        4711.4492      11.854134      20.531963      19.35772     
     16000   190.75843     -1956.2779      10.627367     -1945.6505     -4540.8949      4733.4542      11.872561      20.563878      19.38781     
     16500   203.673       -1956.5722      11.346851     -1945.2254     -1780.1533      4730.7072      11.870263      20.559899      19.384059    
     17000   194.7081      -1955.4455      10.847407     -1944.5981     -23.371121      4725.3749      11.865802      20.552172      19.376773    
     17500   216.53756     -1955.753       12.06355      -1943.6895     -595.84019      4728.6378      11.868532      20.556901      19.381232    
     18000   198.27914     -1956.0606      11.046353     -1945.0143      2830.032       4717.6439      11.859327      20.540957      19.3662      
     18500   192.88569     -1956.1895      10.745878     -1945.4436     -294.33546      4727.1601      11.867296      20.55476       19.379213    
     19000   189.75149     -1955.973       10.571269     -1945.4018     -2905.7144      4730.822       11.870359      20.560066      19.384216    
     19500   198.18261     -1956.7227      11.040976     -1945.6818      4445.4339      4711.0922      11.853835      20.531444      19.357231    
     20000   201.7805      -1956.3676      11.241418     -1945.1262      5551.3748      4709.8124      11.852761      20.529585      19.355478    
     20500   210.49191     -1956.1125      11.72674      -1944.3858      2068.8438      4715.4968      11.857528      20.537841      19.363262    
     21000   210.73288     -1955.2694      11.740165     -1943.5293     -7627.0135      4747.5849      11.884363      20.584321      19.407084    
     21500   186.43668     -1956.1753      10.386597     -1945.7887      1536.1719      4721.3849      11.862461      20.546385      19.371318    
     22000   198.99322     -1956.9567      11.086136     -1945.8705      2686.5247      4709.7702      11.852726      20.529524      19.35542     
     22500   197.36228     -1956.1121      10.995274     -1945.1168     -4869.7812      4731.9814      11.871329      20.561745      19.385799    
     23000   200.2542      -1955.651       11.156386     -1944.4946      1644.89        4718.8921      11.860373      20.542769      19.367908    
     23500   204.12727     -1956.2733      11.372159     -1944.9012     -794.36976      4729.2382      11.869035      20.557771      19.382052    
     24000   192.25369     -1957.3225      10.710669     -1946.6118      1362.3068      4718.1487      11.85975       20.54169       19.366891    
     24500   208.75364     -1956.8945      11.629899     -1945.2646     -6125.388       4737.8267      11.876215      20.570208      19.393778    
     25000   192.68163     -1955.7262      10.73451      -1944.9917      1420.3661      4721.5825      11.862627      20.546672      19.371588    
     25500   196.48406     -1956.3509      10.946347     -1945.4046     -2062.7597      4732.4661      11.871734      20.562447      19.386461    
     26000   189.83815     -1956.7158      10.576097     -1946.1397     -4944.4243      4733.2188      11.872364      20.563537      19.387489    
     26500   198.64618     -1956.7964      11.066802     -1945.7296      146.97098      4725.5513      11.865949      20.552427      19.377014    
     27000   193.54198     -1956.1765      10.782441     -1945.394       1521.4507      4723.04        11.863847      20.548786      19.373581    
     27500   192.62842     -1956.7098      10.731546     -1945.9782      713.20155      4721.2016      11.862308      20.54612       19.371067    
     28000   201.71261     -1956.2505      11.237636     -1945.0128      412.03487      4728.3565      11.868297      20.556493      19.380848    
     28500   207.82095     -1956.2018      11.577939     -1944.6238      6334.4372      4709.5201      11.852516      20.52916       19.355078    
     29000   196.67026     -1955.216       10.956721     -1944.2593     -721.20161      4734.8136      11.873697      20.565847      19.389666    
     29500   205.75119     -1956.6082      11.46263      -1945.1455     -4649.6708      4734.9684      11.873826      20.566071      19.389877    
     30000   203.29629     -1956.4926      11.325865     -1945.1667     -6285.0446      4744.9711      11.882182      20.580543      19.403522    
     30500   203.0849      -1956.3445      11.314087     -1945.0304      3020.7724      4720.0803      11.861368      20.544493      19.369534    
     31000   200.45437     -1956.4832      11.167538     -1945.3157      742.37384      4723.3701      11.864124      20.549265      19.374033    
     31500   203.27916     -1956.4415      11.32491      -1945.1166      3550.8981      4718.9409      11.860414      20.54284       19.367975    
     32000   213.64276     -1956.4063      11.902278     -1944.504       2610.2367      4716.0787      11.858016      20.538685      19.364058    
     32500   219.53787     -1956.6977      12.230701     -1944.467      -105.74965      4725.0634      11.865541      20.55172       19.376348    
     33000   209.5442      -1956.3437      11.673943     -1944.6698     -223.88457      4733.4053      11.87252       20.563807      19.387744    
     33500   197.8834      -1956.8288      11.024306     -1945.8045      7756.5686      4711.9537      11.854557      20.532696      19.358411    
     34000   190.70413     -1957.0588      10.624341     -1946.4345     -6429.6875      4738.9536      11.877157      20.571839      19.395316    
     34500   198.44314     -1957.0185      11.05549      -1945.963       3277.9324      4718.3743      11.859939      20.542017      19.3672      
     35000   196.84833     -1956.515       10.966642     -1945.5483      4017.791       4722.6995      11.863562      20.548292      19.373116    
     35500   206.10634     -1956.8322      11.482416     -1945.3498     -5718.0578      4747.3506      11.884168      20.583982      19.406764    
     36000   185.84362     -1955.8844      10.353557     -1945.5309      2048.1834      4728.4742      11.868396      20.556664      19.381009    
     36500   200.89097     -1956.2036      11.191861     -1945.0117      1200.0809      4723.9614      11.864619      20.550122      19.374841    
     37000   202.2576      -1956.692       11.267998     -1945.424      -1179.6791      4730.7868      11.87033       20.560015      19.384168    
     37500   197.73852     -1956.8958      11.016235     -1945.8795     -878.42253      4729.1969      11.869         20.557711      19.381996    
     38000   197.42253     -1956.3331      10.998631     -1945.3345     -5423.1426      4744.8846      11.88211       20.580418      19.403404    
     38500   207.97318     -1956.2601      11.586419     -1944.6737     -2207.2464      4734.4302      11.873377      20.565291      19.389143    
     39000   196.64134     -1955.8668      10.95511      -1944.9117      2268.7722      4725.9004      11.866242      20.552934      19.377492    
     39500   182.97156     -1956.7179      10.193551     -1946.5243     -4122.1023      4742.3817      11.88002       20.576798      19.399991    
     40000   189.46247     -1956.6269      10.555167     -1946.0717      955.23252      4720.4679      11.861693      20.545055      19.370064    
     40500   206.90852     -1956.4719      11.527106     -1944.9448     -5366.4376      4750.2904      11.88662       20.58823       19.41077     
     41000   209.66847     -1956.8544      11.680866     -1945.1736      5103.6808      4720.9453      11.862093      20.545748      19.370717    
     41500   201.63769     -1956.9869      11.233462     -1945.7534      5809.0705      4706.8081      11.850241      20.525219      19.351362    
     42000   190.81925     -1957.4605      10.630755     -1946.8297      960.6926       4723.8216      11.864502      20.54992       19.37465     
     42500   201.85509     -1956.9781      11.245574     -1945.7325     -980.37055      4722.2923      11.863221      20.547702      19.372559    
     43000   207.36925     -1956.6157      11.552774     -1945.0629     -3016.387       4730.726       11.870279      20.559927      19.384085    
     43500   188.94973     -1956.525       10.526602     -1945.9984     -2480.8999      4732.0795      11.871411      20.561887      19.385933    
     44000   197.25155     -1956.4278      10.989106     -1945.4387     -144.90113      4727.0718      11.867222      20.554632      19.379092    
     44500   211.18604     -1956.7428      11.765412     -1944.9774     -246.69223      4725.7821      11.866143      20.552762      19.37733     
     45000   197.61781     -1955.6898      11.00951      -1944.6802      2756.4491      4725.1707      11.865631      20.551876      19.376494    
     45500   201.56768     -1956.026       11.229562     -1944.7964      3765.9722      4725.8168      11.866172      20.552812      19.377377    
     46000   190.83346     -1956.2716      10.631546     -1945.64        1870.0549      4732.1645      11.871482      20.56201       19.386049    
     46500   195.38617     -1956.0073      10.885183     -1945.1221     -4960.043       4739.8006      11.877864      20.573064      19.396471    
     47000   208.61485     -1956.1217      11.622168     -1944.4996      1022.5907      4724.5531      11.865114      20.55098       19.37565     
     47500   199.69184     -1956.2871      11.125056     -1945.1621     -2616.7244      4729.2099      11.869011      20.55773       19.382014    
     48000   199.93494     -1956.6204      11.1386       -1945.4818      4062.7888      4723.2041      11.863985      20.549024      19.373806    
     48500   203.0172      -1956.9247      11.310316     -1945.6143      4803.4376      4711.6791      11.854327      20.532297      19.358035    
     49000   206.85722     -1956.5863      11.524248     -1945.0621      93.469077      4723.0991      11.863897      20.548872      19.373662    
     49500   207.15074     -1955.9163      11.5406       -1944.3757      533.96369      4727.7297      11.867773      20.555585      19.379991    
     50000   201.65927     -1956.5574      11.234664     -1945.3227     -2404.4341      4732.0032      11.871347      20.561777      19.385829    
Loop time of 508.655 on 8 procs for 50000 steps with 432 atoms

Performance: 8.493 ns/day, 2.826 hours/ns, 98.299 timesteps/s, 42.465 katom-step/s
90.2% CPU use with 1 MPI tasks x 8 OpenMP threads

MPI task timing breakdown:
Section |  min time  |  avg time  |  max time  |%varavg| %total
---------------------------------------------------------------
Pair    | 447.69     | 447.69     | 447.69     |   0.0 | 88.02
Neigh   | 0          | 0          | 0          |   0.0 |  0.00
Comm    | 0.42266    | 0.42266    | 0.42266    |   0.0 |  0.08
Output  | 0.005714   | 0.005714   | 0.005714   |   0.0 |  0.00
Modify  | 60.452     | 60.452     | 60.452     |   0.0 | 11.88
Other   |            | 0.08051    |            |       |  0.02

Nlocal:            432 ave         432 max         432 min
Histogram: 1 0 0 0 0 0 0 0 0 0
Nghost:           2834 ave        2834 max        2834 min
Histogram: 1 0 0 0 0 0 0 0 0 0
Neighs:          41884 ave       41884 max       41884 min
Histogram: 1 0 0 0 0 0 0 0 0 0
FullNghs:        83768 ave       83768 max       83768 min
Histogram: 1 0 0 0 0 0 0 0 0 0

Total # of neighbors = 83768
Ave neighs/atom = 193.90741
Neighbor list builds = 0
Dangerous builds = 0

=== FINAL RESULTS: HCP at 200 K ===
Atoms: 432 | PE/atom: -4.52885894341633 eV/atom
WARNING: Detected non-ASCII characters in input. Will try to continue by replacing with ASCII equivalents where known. (src/input.cpp:479)
Volume: 4732.00320164198 …³ | Area: 244.095993752012 ²
==========================================
HCP 200 432 -4.52885894341633 4732.00320164198 11.8713473411316 20.5617767501649 19.3858290294164 244.095993752012
Simulation complete!
Total wall time: 0:11:50
