LAMMPS (10 Sep 2025)
  using 8 OpenMP thread(s) per MPI task
Loaded 1 plugins from C:\Users\harsh\Downloads\LAMMPS 64-bit 10Sep2025\plugins
using multi-threaded neighbor list subroutines
Reading data file ...
  orthogonal box = (0 0 0) to (15.750804 27.281192 25.720954)
  1 by 1 by 1 MPI processor grid
  reading atoms ...
  432 atoms
  read_data CPU = 0.002 seconds
=== STAGE 1: Energy Minimization ===
Switching to 'neigh_modify every 1 delay 0 check yes' setting during minimization
No /omp style for force computation currently active
Neighbor list info ...
  update: every = 1 steps, delay = 0 steps, check = yes
  max neighbors/atom: 4000, page size: 100000
  master list distance cutoff = 8
  ghost atom cutoff = 8
  binsize = 4, bins = 4 7 7
  2 neighbor lists, perpetual/occasional/extra = 2 0 0
  (1) pair meam, perpetual
      attributes: full, newton on, omp
      pair build: full/bin/atomonly/omp
      stencil: full/bin/3d
      bin: standard
  (2) pair meam, perpetual, half/full from (1)
      attributes: half, newton on, omp
      pair build: halffull/newton/omp
      stencil: none
      bin: none
Setting up cg style minimization ...
  Unit style    : metal
  Current step  : 0
Per MPI rank memory allocation (min/avg/max) = 19.35 | 19.35 | 19.35 Mbytes
   Step          Temp          PotEng         KinEng         TotEng         Press          Volume           Lx             Ly             Lz      
         0   0             -1177.4651      0             -1177.4651     -99999.192      11052.312      15.750804      27.281192      25.720954    
       240   0             -1520.5203      0             -1520.5203     -56540.756      11052.312      15.750804      27.281192      25.720954    
Loop time of 2.45663 on 8 procs for 240 steps with 432 atoms

91.6% CPU use with 1 MPI tasks x 8 OpenMP threads

Minimization stats:
  Stopping criterion = energy tolerance
  Energy initial, next-to-last, final = 
     -1177.46509734826  -1520.51946648402  -1520.52027728604
  Force two-norm initial, final = 15.311691 9.037776
  Force max component initial, final = 1.5509843 4.9972312
  Final line search alpha, max atom move = 0.018989784 0.094896344
  Iterations, force evaluations = 240 650

MPI task timing breakdown:
Section |  min time  |  avg time  |  max time  |%varavg| %total
---------------------------------------------------------------
Pair    | 2.2548     | 2.2548     | 2.2548     |   0.0 | 91.78
Neigh   | 0.006376   | 0.006376   | 0.006376   |   0.0 |  0.26
Comm    | 0.003971   | 0.003971   | 0.003971   |   0.0 |  0.16
Output  | 0          | 0          | 0          |   0.0 |  0.00
Modify  | 0.18383    | 0.18383    | 0.18383    |   0.0 |  7.48
Other   |            | 0.007649   |            |       |  0.31

Nlocal:            432 ave         432 max         432 min
Histogram: 1 0 0 0 0 0 0 0 0 0
Nghost:           1796 ave        1796 max        1796 min
Histogram: 1 0 0 0 0 0 0 0 0 0
Neighs:          17825 ave       17825 max       17825 min
Histogram: 1 0 0 0 0 0 0 0 0 0
FullNghs:        35650 ave       35650 max       35650 min
Histogram: 1 0 0 0 0 0 0 0 0 0

Total # of neighbors = 35650
Ave neighs/atom = 82.523148
Neighbor list builds = 7
Dangerous builds = 0
Minimized PE/atom: -3.51972286408805 eV/atom
=== STAGE 2: NPT Equilibration at 200 K ===
No /omp style for force computation currently active
Setting up Verlet run ...
  Unit style    : metal
  Current step  : 0
  Time step     : 0.002
Per MPI rank memory allocation (min/avg/max) = 18.23 | 18.23 | 18.23 Mbytes
   Step          Temp          PotEng         KinEng         TotEng         Press          Volume           Lx             Ly             Lz      
         0   200           -1520.5203      11.142224     -1509.3781     -55463.949      11052.312      15.750804      27.281192      25.720954    
       500   589.82511     -1768.0562      32.859819     -1735.1964     -6934.7627      5868.1396      12.754159      22.090851      20.827454    
      1000   312.22208     -1886.1222      17.394243     -1868.728      -535.21744      5106.706       12.176766      21.090777      19.884575    
      1500   186.0094      -1908.6446      10.362793     -1898.2818     -4115.7118      5011.7504      12.10082       20.959236      19.760557    
      2000   202.72013     -1920.2694      11.293766     -1908.9756      4751.4958      4905.0133      12.014298      20.809374      19.619266    
      2500   209.51802     -1925.9327      11.672484     -1914.2602     -1016.3825      4866.6906      11.982927      20.755038      19.568038    
      3000   219.0366      -1934.7219      12.202775     -1922.5192     -715.69585      4824.07        11.947844      20.694272      19.510747    
      3500   188.02487     -1937.3585      10.475077     -1926.8834      1142.5821      4823.0733      11.947021      20.692847      19.509403    
      4000   183.42188     -1937.8591      10.218639     -1927.6405      2099.6222      4816.0806      11.941244      20.682842      19.49997     
      4500   210.61636     -1937.6844      11.733674     -1925.9507      2853.9589      4813.1241      11.9388        20.678609      19.495979    
      5000   207.58943     -1937.5514      11.56504      -1925.9864      2623.9921      4814.9943      11.940346      20.681287      19.498504    
      5500   200.61476     -1939.0742      11.176474     -1927.8977      2101.5233      4818.2372      11.943026      20.685929      19.50288     
      6000   192.50298     -1938.8875      10.724557     -1928.1629      1307.4984      4819.6908      11.944227      20.688009      19.504842    
      6500   203.32896     -1938.9452      11.327685     -1927.6175      6139.6674      4802.2746      11.929823      20.663059      19.481319    
      7000   200.48756     -1937.8608      11.169387     -1926.6914      1874.5813      4814.2496      11.939731      20.68022       19.497499    
      7500   207.23461     -1938.7547      11.545273     -1927.2094      991.48875      4815.9831      11.941164      20.682702      19.499839    
      8000   198.94465     -1939.3089      11.08343      -1928.2255     -1601.3043      4824.4299      11.948141      20.694787      19.511232    
      8500   193.33835     -1938.9826      10.771097     -1928.2115      2707.9302      4820.1158      11.944578      20.688617      19.505415    
      9000   192.55415     -1937.9371      10.727408     -1927.2097      3190.5478      4809.739       11.936001      20.67376       19.491408    
      9500   207.11198     -1938.7549      11.538441     -1927.2164     -1633.6779      4834.5036      11.956451      20.709181      19.524803    
     10000   196.38195     -1938.5274      10.940659     -1927.5867      3370.697       4806.6656      11.933458      20.669355      19.487255    
     10500   198.16086     -1939.3459      11.039764     -1928.3062      1375.6198      4817.014       11.942016      20.684178      19.50123     
     11000   198.11349     -1939.1984      11.037125     -1928.1613      4643.7479      4802.0488      11.929636      20.662736      19.481014    
     11500   198.9556      -1938.5548      11.08404      -1927.4707     -2476.6134      4826.3906      11.949759      20.69759       19.513875    
     12000   200.23919     -1938.6024      11.15555      -1927.4468      5405.4817      4808.7645      11.935195      20.672363      19.490091    
     12500   205.65061     -1939.4118      11.457026     -1927.9548     -849.67267      4817.8796      11.942731      20.685417      19.502398    
     13000   199.00983     -1939.5547      11.087061     -1928.4676     -1456.7144      4821.5049      11.945726      20.690604      19.507288    
     13500   198.2876      -1939.2494      11.046825     -1928.2026     -267.98806      4817.7537      11.942627      20.685237      19.502228    
     14000   204.62619     -1939.0249      11.399955     -1927.625      -427.00759      4816.6074      11.94168       20.683596      19.500681    
     14500   198.78306     -1938.8076      11.074427     -1927.7332     -2714.0257      4821.3939      11.945634      20.690445      19.507139    
     15000   193.02915     -1939.1504      10.753871     -1928.3965     -913.61586      4818.6257      11.943347      20.686485      19.503405    
     15500   195.96        -1939.572       10.917152     -1928.6549     -362.72875      4808.7554      11.935187      20.67235       19.490079    
     16000   192.44368     -1938.7564      10.721253     -1928.0351     -4161.4452      4827.5412      11.950709      20.699235      19.515426    
     16500   209.19815     -1938.5542      11.654664     -1926.8995      2520.9304      4812.8745      11.938594      20.678251      19.495642    
     17000   215.20233     -1940.02        11.989164     -1928.0308     -2342.5646      4819.6238      11.944172      20.687913      19.504751    
     17500   191.86609     -1938.6121      10.689075     -1927.923      -3107.0577      4828.0663      11.951142      20.699985      19.516133    
     18000   201.43959     -1938.9488      11.222425     -1927.7264     -1331.579       4816.3808      11.941492      20.683272      19.500375    
     18500   196.71594     -1939.2074      10.959266     -1928.2481      1264.3647      4809.2013      11.935556      20.672989      19.490681    
     19000   194.45053     -1939.4424      10.833057     -1928.6093     -3362.1323      4820.1429      11.944601      20.688656      19.505451    
     19500   206.11987     -1939.8494      11.483169     -1928.3662      2202.3924      4808.992       11.935383      20.67269       19.490399    
     20000   225.22346     -1938.8201      12.547452     -1926.2727     -1829.4095      4821.4001      11.945639      20.690454      19.507147    
Loop time of 204.167 on 8 procs for 20000 steps with 432 atoms

Performance: 16.927 ns/day, 1.418 hours/ns, 97.959 timesteps/s, 42.318 katom-step/s
89.9% CPU use with 1 MPI tasks x 8 OpenMP threads

MPI task timing breakdown:
Section |  min time  |  avg time  |  max time  |%varavg| %total
---------------------------------------------------------------
Pair    | 178.44     | 178.44     | 178.44     |   0.0 | 87.40
Neigh   | 0.020677   | 0.020677   | 0.020677   |   0.0 |  0.01
Comm    | 0.17402    | 0.17402    | 0.17402    |   0.0 |  0.09
Output  | 0.002602   | 0.002602   | 0.002602   |   0.0 |  0.00
Modify  | 25.494     | 25.494     | 25.494     |   0.0 | 12.49
Other   |            | 0.0331     |            |       |  0.02

Nlocal:            432 ave         432 max         432 min
Histogram: 1 0 0 0 0 0 0 0 0 0
Nghost:           2776 ave        2776 max        2776 min
Histogram: 1 0 0 0 0 0 0 0 0 0
Neighs:          40905 ave       40905 max       40905 min
Histogram: 1 0 0 0 0 0 0 0 0 0
FullNghs:        81810 ave       81810 max       81810 min
Histogram: 1 0 0 0 0 0 0 0 0 0

Total # of neighbors = 81810
Ave neighs/atom = 189.375
Neighbor list builds = 24
Dangerous builds = 0
=== STAGE 3: NPT Production at 200 K ===
No /omp style for force computation currently active
Setting up Verlet run ...
  Unit style    : metal
  Current step  : 0
  Time step     : 0.001
Per MPI rank memory allocation (min/avg/max) = 18.97 | 18.97 | 18.97 Mbytes
   Step          Temp          PotEng         KinEng         TotEng         Press          Volume           Lx             Ly             Lz      
         0   225.22346     -1938.8201      12.547452     -1926.2727     -1829.4095      4821.4001      11.945639      20.690454      19.507147    
       500   202.87256     -1939.2727      11.302258     -1927.9704     -1346.8906      4815.6052      11.940851      20.682161      19.499329    
      1000   200.98044     -1939.6325      11.196846     -1928.4356     -3623.7839      4818.1772      11.942977      20.685843      19.5028      
      1500   198.77377     -1938.5397      11.07391      -1927.4658      2236.6081      4811.9411      11.937822      20.676914      19.494382    
      2000   199.99035     -1938.8449      11.141687     -1927.7032     -3577.9801      4823.6435      11.947492      20.693663      19.510172    
      2500   202.59523     -1939.6717      11.286808     -1928.3849      2853.5092      4806.4598      11.933288      20.66906       19.486977    
      3000   190.80742     -1939.0377      10.630095     -1928.4076     -531.05192      4817.7465      11.942621      20.685226      19.502218    
      3500   196.6892      -1938.666       10.957776     -1927.7082     -2191.5232      4827.0175      11.950277      20.698486      19.51472     
      4000   205.65802     -1939.3172      11.457439     -1927.8597     -3359.8902      4822.9761      11.946941      20.692708      19.509272    
      4500   198.48344     -1939.003       11.057735     -1927.9452      2867.5608      4806.5922      11.933397      20.66925       19.487156    
      5000   203.48609     -1940.0493      11.336438     -1928.7129      1323.4988      4812.9032      11.938618      20.678292      19.495681    
      5500   187.82735     -1938.9813      10.464073     -1928.5173     -3594.2819      4825.0899      11.948686      20.695731      19.512122    
      6000   210.29408     -1939.2544      11.71572      -1927.5387      2527.9587      4810.0602      11.936266      20.67422       19.491842    
      6500   198.28377     -1938.6129      11.046612     -1927.5662      3168.3682      4811.9647      11.937842      20.676948      19.494414    
      7000   209.61845     -1939.3717      11.678079     -1927.6936     -138.39106      4813.2706      11.938921      20.678819      19.496177    
      7500   193.02056     -1939.3142      10.753392     -1928.5608      583.53689      4819.3104      11.943913      20.687464      19.504328    
      8000   190.14761     -1939.1165      10.593337     -1928.5232      3263.9606      4808.3921      11.934887      20.67183       19.489588    
      8500   209.45833     -1939.531       11.669159     -1927.8618     -4102.4804      4828.2232      11.951272      20.70021       19.516345    
      9000   209.5652      -1938.755       11.675112     -1927.0798      3249.9283      4807.1592      11.933866      20.670063      19.487922    
      9500   192.92484     -1939.0553      10.748059     -1928.3072      271.31768      4811.759       11.937671      20.676654      19.494136    
     10000   183.98404     -1938.8767      10.249957     -1928.6267      5829.3322      4795.9456      11.92458       20.653978      19.472757    
     10500   201.23477     -1940.0814      11.211015     -1928.8704     -2202.7031      4812.1025      11.937956      20.677146      19.4946      
     11000   198.10907     -1939.3861      11.036879     -1928.3492      3449.2008      4805.6383      11.932608      20.667883      19.485867    
     11500   205.76802     -1938.9377      11.463567     -1927.4742     -1285.3909      4818.9306      11.943599      20.686921      19.503816    
     12000   189.32888     -1938.0067      10.547724     -1927.459      -3771.3095      4826.9991      11.950261      20.69846       19.514695    
     12500   201.86329     -1938.7083      11.246031     -1927.4623      1223.7376      4813.9076      11.939448      20.679731      19.497037    
     13000   201.72027     -1939.763       11.238063     -1928.5249      5285.3122      4798.455       11.926659      20.65758       19.476153    
     13500   188.8455      -1939.3127      10.520795     -1928.7919     -4098.276       4826.0362      11.949467      20.697084      19.513398    
     14000   202.42582     -1939.7651      11.27737      -1928.4878     -6419.1432      4826.71        11.950023      20.698047      19.514306    
     14500   195.97583     -1939.1885      10.918034     -1928.2705      1897.0655      4812.8629      11.938584      20.678235      19.495627    
     15000   205.74446     -1938.6645      11.462255     -1927.2022      3406.1931      4807.98        11.934546      20.671239      19.489031    
     15500   202.7594      -1938.0178      11.295954     -1926.7218      4354.8702      4812.1389      11.937986      20.677198      19.494649    
     16000   192.79104     -1938.7674      10.740605     -1928.0268     -2333.9198      4818.9559      11.94362       20.686957      19.50385     
     16500   194.47985     -1939.3882      10.83469      -1928.5535      1119.0459      4805.1151      11.932175      20.667133      19.48516     
     17000   204.39877     -1938.4919      11.387285     -1927.1047      1978.516       4804.3437      11.931536      20.666027      19.484117    
     17500   208.89233     -1938.9576      11.637626     -1927.32        7956.6814      4787.7503      11.917784      20.642207      19.461659    
     18000   197.69168     -1939.3963      11.013625     -1928.3826     -1274.0079      4818.985       11.943644      20.686999      19.503889    
     18500   205.89133     -1938.9968      11.470437     -1927.5263     -816.4137       4817.5378      11.942449      20.684928      19.501937    
     19000   205.02333     -1938.5939      11.42208      -1927.1718     -1631.4821      4814.95        11.94031       20.681223      19.498444    
     19500   199.08019     -1939.2113      11.090981     -1928.1204      238.82454      4807.7113      11.934323      20.670854      19.488668    
     20000   202.76758     -1939.5181      11.296409     -1928.2217     -4364.0659      4816.5327      11.941618      20.683489      19.500581    
     20500   213.53086     -1939.9713      11.896044     -1928.0753      5623.9385      4792.6089      11.921814      20.649187      19.46824     
     21000   204.04051     -1941.0457      11.367326     -1929.6784      5759.8938      4785.7104      11.916091      20.639275      19.458895    
     21500   191.2014      -1940.3252      10.652044     -1929.6732     -2830.6265      4808.3225      11.934829      20.67173       19.489494    
     22000   198.65441     -1940.5531      11.06726      -1929.4859     -3377.1904      4809.0996      11.935472      20.672844      19.490544    
     22500   200.61079     -1939.9102      11.176252     -1928.7339      988.98474      4807.3566      11.93403       20.670346      19.488189    
     23000   204.18148     -1940.8876      11.375179     -1929.5124      3666.8998      4790.6968      11.920228      20.646441      19.465651    
     23500   210.19619     -1941.8507      11.710266     -1930.1404     -184.52742      4797.5481      11.925908      20.656278      19.474926    
     24000   202.9472      -1941.0515      11.306416     -1929.7451      1776.0296      4794.43        11.923324      20.651802      19.470706    
     24500   197.06522     -1940.0844      10.978725     -1929.1056      7445.1621      4783.1802      11.913991      20.635637      19.455465    
     25000   212.06809     -1940.0107      11.814551     -1928.1961     -1706.7897      4807.4482      11.934105      20.670477      19.488313    
     25500   213.34051     -1941.5009      11.885439     -1929.6154      945.11979      4792.6176      11.921821      20.6492        19.468252    
     26000   203.0171      -1941.1895      11.310311     -1929.8792      1454.916       4788.6994      11.918571      20.643571      19.462945    
     26500   204.49788     -1940.8         11.392807     -1929.4072     -2513.5722      4811.8894      11.937779      20.67684       19.494312    
     27000   198.2162      -1939.8254      11.042847     -1928.7826      5351.2203      4779.0428      11.910554      20.629685      19.449854    
     27500   204.64595     -1941.0302      11.401056     -1929.6291     -2808.5523      4803.9302      11.931194      20.665434      19.483558    
     28000   192.61862     -1940.7297      10.730999     -1929.9987     -3723.4243      4815.222       11.940535      20.681613      19.498811    
     28500   198.64496     -1941.3656      11.066734     -1930.2988      49.76083       4798.1188      11.926381      20.657097      19.475698    
     29000   199.7039      -1940.6969      11.125729     -1929.5712     -1299.3287      4806.8259      11.933591      20.669585      19.487472    
     29500   185.94196     -1939.5962      10.359035     -1929.2372      1773.6882      4799.041       11.927145      20.658421      19.476946    
     30000   201.84094     -1941.0099      11.244785     -1929.7651      1555.0826      4805.0505      11.932121      20.66704       19.485072    
     30500   204.00884     -1942.0134      11.365561     -1930.6478     -3405.4498      4808.2381      11.934759      20.671609      19.48938     
     31000   194.45385     -1940.3585      10.833242     -1929.5252     -2256.3689      4807.3701      11.934041      20.670365      19.488207    
     31500   210.61402     -1941.0774      11.733544     -1929.3439      1105.4108      4801.1975      11.928931      20.661515      19.479863    
     32000   203.80464     -1941.2946      11.354185     -1929.9404      3045.3812      4792.6538      11.921851      20.649252      19.468301    
     32500   192.02912     -1941.3739      10.698158     -1930.6758     -5135.2405      4804.4802      11.931649      20.666222      19.484301    
     33000   201.36134     -1940.6571      11.218066     -1929.439       533.47702      4796.934       11.925399      20.655397      19.474095    
     33500   202.91968     -1940.8461      11.304883     -1929.5412     -2745.3194      4815.686       11.940918      20.682277      19.499438    
     34000   196.22946     -1940.7132      10.932163     -1929.781       3858.4465      4788.3238      11.91826       20.643031      19.462436    
     34500   186.72743     -1940.7171      10.402795     -1930.3143      5422.8794      4792.2923      11.921551      20.648732      19.467812    
     35000   208.67198     -1941.4633      11.62535      -1929.8379      3358.0698      4786.9946      11.917157      20.641121      19.460635    
     35500   222.56805     -1941.38        12.399516     -1928.9805      3160.4189      4782.1895      11.913168      20.634212      19.454122    
     36000   192.94484     -1942.5268      10.749173     -1931.7776     -2087.5243      4792.8496      11.922013      20.649533      19.468566    
     36500   199.56875     -1943.0653      11.118199     -1931.9471     -146.91129      4777.758       11.909487      20.627836      19.448111    
     37000   200.95249     -1947.599       11.195289     -1936.4037      4356.7158      4731.5755      11.87099       20.561157      19.385245    
     37500   226.49202     -1949.7352      12.618125     -1937.117       918.36655      4735.522       11.874289      20.566872      19.390633    
     38000   197.62934     -1952.2161      11.010152     -1941.2059     -3995.6307      4751.9729      11.888023      20.590661      19.413061    
     38500   199.92467     -1953.6151      11.138028     -1942.4771      603.5076       4726.1658      11.866464      20.553318      19.377854    
     39000   214.45484     -1955.7834      11.94752      -1943.8359      166.10323      4724.9741      11.865466      20.551591      19.376225    
     39500   199.65133     -1956.1828      11.1228       -1945.06       -3665.5153      4728.25        11.868208      20.556339      19.380702    
     40000   195.11647     -1956.3362      10.870158     -1945.4661     -2275.4236      4721.0882      11.862213      20.545955      19.370912    
     40500   207.74276     -1956.2431      11.573582     -1944.6695      2257.3922      4716.3491      11.858242      20.539078      19.364428    
     41000   207.24384     -1956.0802      11.545787     -1944.5345     -2084.5672      4722.434       11.86334       20.547907      19.372753    
     41500   175.9626      -1955.1959      9.8030739     -1945.3928     -688.07239      4716.3497      11.858243      20.539079      19.364429    
     42000   192.69455     -1956.1549      10.735229     -1945.4197      5309.3398      4705.7968      11.849392      20.523749      19.349976    
     42500   196.02619     -1956.7802      10.920839     -1945.8593     -783.50269      4716.2933      11.858195      20.538997      19.364352    
     43000   200.46519     -1956.2041      11.168141     -1945.0359      3088.9834      4712.7588      11.855232      20.533865      19.359513    
     43500   203.52547     -1956.428       11.338633     -1945.0893     -1378.4116      4717.9254      11.859563      20.541366      19.366586    
     44000   198.80549     -1957.5415      11.075677     -1946.4658     -2529.3043      4724.2499      11.86486       20.550541      19.375236    
     44500   209.33041     -1958.3154      11.662032     -1946.6534      2000.9848      4703.554       11.847509      20.520488      19.346901    
     45000   206.34177     -1957.5252      11.495532     -1946.0297      1973.9048      4705.833       11.849422      20.523801      19.350025    
     45500   206.73981     -1957.909       11.517707     -1946.3912     -318.98689      4710.2273      11.853109      20.530188      19.356047    
     46000   200.42346     -1958.3379      11.165816     -1947.1721     -999.25715      4715.2518      11.857323      20.537485      19.362927    
     46500   205.13602     -1958.1751      11.428358     -1946.7467     -4243.9537      4721.3021      11.862392      20.546265      19.371205    
     47000   197.99897     -1957.4407      11.030745     -1946.4099      8.3096367      4713.3816      11.855755      20.534769      19.360366    
     47500   214.42331     -1957.4948      11.945763     -1945.549       1750.3517      4708.7844      11.851899      20.528091      19.35407     
     48000   208.19289     -1956.8538      11.59866      -1945.2552      1866.7019      4712.0452      11.854634      20.532828      19.358536    
     48500   188.66428     -1957.3325      10.510699     -1946.8218     -1195.2206      4713.6857      11.85601       20.535211      19.360783    
     49000   205.26651     -1958.4101      11.435628     -1946.9745      5979.7022      4693.2872      11.838883      20.505546      19.332814    
     49500   199.6268      -1957.2448      11.121433     -1946.1234      771.53774      4714.1302      11.856382      20.535856      19.361391    
     50000   204.56743     -1957.0226      11.396681     -1945.6259      103.07684      4713.0386      11.855467      20.534271      19.359897    
Loop time of 492.097 on 8 procs for 50000 steps with 432 atoms

Performance: 8.779 ns/day, 2.734 hours/ns, 101.606 timesteps/s, 43.894 katom-step/s
91.4% CPU use with 1 MPI tasks x 8 OpenMP threads

MPI task timing breakdown:
Section |  min time  |  avg time  |  max time  |%varavg| %total
---------------------------------------------------------------
Pair    | 435.99     | 435.99     | 435.99     |   0.0 | 88.60
Neigh   | 0.004158   | 0.004158   | 0.004158   |   0.0 |  0.00
Comm    | 0.40881    | 0.40881    | 0.40881    |   0.0 |  0.08
Output  | 0.006292   | 0.006292   | 0.006292   |   0.0 |  0.00
Modify  | 55.613     | 55.613     | 55.613     |   0.0 | 11.30
Other   |            | 0.07202    |            |       |  0.01

Nlocal:            432 ave         432 max         432 min
Histogram: 1 0 0 0 0 0 0 0 0 0
Nghost:           2850 ave        2850 max        2850 min
Histogram: 1 0 0 0 0 0 0 0 0 0
Neighs:          41687 ave       41687 max       41687 min
Histogram: 1 0 0 0 0 0 0 0 0 0
FullNghs:        83374 ave       83374 max       83374 min
Histogram: 1 0 0 0 0 0 0 0 0 0

Total # of neighbors = 83374
Ave neighs/atom = 192.99537
Neighbor list builds = 4
Dangerous builds = 0

=== FINAL RESULTS: DHCP at 200 K ===
Atoms: 432 | PE/atom: -4.5310328085252 eV/atom
WARNING: Detected non-ASCII characters in input. Will try to continue by replacing with ASCII equivalents where known. (src/input.cpp:479)
Volume: 4713.03861469992 …³ | Area: 243.443376935272 ²
==========================================
DHCP 200 432 -4.5310328085252 4713.03861469992 11.8554670595041 20.5342712955465 19.3598966381124 243.443376935272
Simulation complete!
Total wall time: 0:11:38
