LAMMPS (10 Sep 2025)
  using 8 OpenMP thread(s) per MPI task
Loaded 1 plugins from C:\Users\harsh\Downloads\LAMMPS 64-bit 10Sep2025\plugins
using multi-threaded neighbor list subroutines
Reading data file ...
  orthogonal box = (0 0 0) to (22.275 22.275 22.275)
  1 by 1 by 1 MPI processor grid
  reading atoms ...
  864 atoms
  read_data CPU = 0.023 seconds
=== STAGE 1: Energy Minimization ===
Switching to 'neigh_modify every 1 delay 0 check yes' setting during minimization
No /omp style for force computation currently active
Neighbor list info ...
  update: every = 1 steps, delay = 0 steps, check = yes
  max neighbors/atom: 4000, page size: 100000
  master list distance cutoff = 8
  ghost atom cutoff = 8
  binsize = 4, bins = 6 6 6
  2 neighbor lists, perpetual/occasional/extra = 2 0 0
  (1) pair meam, perpetual
      attributes: full, newton on, omp
      pair build: full/bin/atomonly/omp
      stencil: full/bin/3d
      bin: standard
  (2) pair meam, perpetual, half/full from (1)
      attributes: half, newton on, omp
      pair build: halffull/newton/omp
      stencil: none
      bin: none
Setting up cg style minimization ...
  Unit style    : metal
  Current step  : 0
Per MPI rank memory allocation (min/avg/max) = 21.26 | 21.26 | 21.26 Mbytes
   Step          Temp          PotEng         KinEng         TotEng         Press          Volume           Lx             Ly             Lz      
         0   0             -3765.997       0             -3765.997      -175777.61      11052.312      22.275         22.275         22.275       
        15   0             -3808.6676      0             -3808.6676     -185069.79      11052.312      22.275         22.275         22.275       
Loop time of 0.465176 on 8 procs for 15 steps with 864 atoms

84.0% CPU use with 1 MPI tasks x 8 OpenMP threads

Minimization stats:
  Stopping criterion = energy tolerance
  Energy initial, next-to-last, final = 
     -3765.99696357493  -3808.66535185787   -3808.6675503609
  Force two-norm initial, final = 22.637254 0.12500998
  Force max component initial, final = 2.6363818 0.03145486
  Final line search alpha, max atom move = 1 0.03145486
  Iterations, force evaluations = 15 28

MPI task timing breakdown:
Section |  min time  |  avg time  |  max time  |%varavg| %total
---------------------------------------------------------------
Pair    | 0.46092    | 0.46092    | 0.46092    |   0.0 | 99.08
Neigh   | 0          | 0          | 0          |   0.0 |  0.00
Comm    | 0.000333   | 0.000333   | 0.000333   |   0.0 |  0.07
Output  | 0          | 0          | 0          |   0.0 |  0.00
Modify  | 0.003439   | 0.003439   | 0.003439   |   0.0 |  0.74
Other   |            | 0.000488   |            |       |  0.10

Nlocal:            864 ave         864 max         864 min
Histogram: 1 0 0 0 0 0 0 0 0 0
Nghost:           3767 ave        3767 max        3767 min
Histogram: 1 0 0 0 0 0 0 0 0 0
Neighs:          76032 ave       76032 max       76032 min
Histogram: 1 0 0 0 0 0 0 0 0 0
FullNghs:       152064 ave      152064 max      152064 min
Histogram: 1 0 0 0 0 0 0 0 0 0

Total # of neighbors = 152064
Ave neighs/atom = 176
Neighbor list builds = 0
Dangerous builds = 0
Minimized PE/atom: -4.40818003513993 eV/atom
=== STAGE 2: NPT Equilibration at 200 K ===
No /omp style for force computation currently active
Setting up Verlet run ...
  Unit style    : metal
  Current step  : 0
  Time step     : 0.002
Per MPI rank memory allocation (min/avg/max) = 20.14 | 20.14 | 20.14 Mbytes
   Step          Temp          PotEng         KinEng         TotEng         Press          Volume           Lx             Ly             Lz      
         0   200           -3808.6676      22.310301     -3786.3572     -182913.68      11052.312      22.275         22.275         22.275       
       500   204.19222     -3900.3774      22.77795      -3877.5994     -104.44469      9409.4805      21.111636      21.111636      21.111636    
      1000   196.76358     -3902.1012      21.949273     -3880.152       524.05859      9397.9809      21.103032      21.103032      21.103032    
      1500   201.35982     -3903.1581      22.461991     -3880.6961     -652.60419      9404.1445      21.107644      21.107644      21.107644    
      2000   194.75998     -3901.8106      21.725769     -3880.0849     -1064.9286      9404.9676      21.10826       21.10826       21.10826     
      2500   193.90607     -3900.299       21.630514     -3878.6685     -1542.8466      9407.0624      21.109827      21.109827      21.109827    
      3000   204.47486     -3900.9746      22.809479     -3878.1651     -323.01268      9401.5893      21.105732      21.105732      21.105732    
      3500   200.68617     -3901.9326      22.386845     -3879.5458     -767.44337      9398.8222      21.103661      21.103661      21.103661    
      4000   200.34467     -3902.2135      22.348749     -3879.8647      240.71658      9400.9785      21.105275      21.105275      21.105275    
      4500   202.54764     -3902.638       22.594495     -3880.0435     -793.32629      9399.9105      21.104476      21.104476      21.104476    
      5000   209.19408     -3900.5763      23.335915     -3877.2403      284.21907      9403.0804      21.106848      21.106848      21.106848    
      5500   208.71166     -3901.7356      23.2821       -3878.4535     -1671.7966      9411.1305      21.11287       21.11287       21.11287     
      6000   202.07228     -3901.9138      22.541466     -3879.3723      1080.1278      9396.829       21.10217       21.10217       21.10217     
      6500   195.57156     -3902.026       21.816302     -3880.2097     -603.30226      9400.8987      21.105216      21.105216      21.105216    
      7000   209.933       -3903.4099      23.418342     -3879.9916      567.72842      9396.2394      21.101728      21.101728      21.101728    
      7500   201.70652     -3902.7289      22.500666     -3880.2283     -3808.6194      9413.6715      21.11477       21.11477       21.11477     
      8000   200.65525     -3901.3602      22.383395     -3878.9768      3505.6177      9380.9382      21.090268      21.090268      21.090268    
      8500   192.6786      -3901.253       21.493588     -3879.7594     -1163.5191      9399.2065      21.103949      21.103949      21.103949    
      9000   198.27136     -3902.732       22.117469     -3880.6145     -220.15749      9393.87        21.099954      21.099954      21.099954    
      9500   193.31263     -3901.9329      21.564315     -3880.3686      103.25567      9393.8359      21.099929      21.099929      21.099929    
     10000   199.39593     -3901.5938      22.242916     -3879.3508     -71.544667      9399.8112      21.104402      21.104402      21.104402    
     10500   197.41308     -3900.9494      22.021726     -3878.9277      1176.718       9391.293       21.098025      21.098025      21.098025    
     11000   205.25722     -3902.7869      22.896751     -3879.8901     -1498.7353      9406.7077      21.109562      21.109562      21.109562    
     11500   196.90461     -3902.2296      21.965006     -3880.2645      3903.1351      9371.1343      21.082918      21.082918      21.082918    
     12000   194.57258     -3902.6586      21.704864     -3880.9538     -3476.8261      9413.1263      21.114362      21.114362      21.114362    
     12500   197.48963     -3901.6401      22.030266     -3879.6098      3983.0039      9374.2655      21.085266      21.085266      21.085266    
     13000   199.82863     -3901.6325      22.291185     -3879.3413     -3804.3317      9421.8755      21.120902      21.120902      21.120902    
     13500   196.24673     -3901.5722      21.891618     -3879.6806      1634.7463      9386.381       21.094346      21.094346      21.094346    
     14000   198.37302     -3903.046       22.128809     -3880.9171     -1097.9371      9401.3537      21.105556      21.105556      21.105556    
     14500   204.92808     -3903.4473      22.860035     -3880.5872      30.8821        9394.4257      21.10037       21.10037       21.10037     
     15000   196.11832     -3901.9201      21.877294     -3880.0428     -1085.7217      9402.9399      21.106743      21.106743      21.106743    
     15500   208.26571     -3901.851       23.232353     -3878.6186      1591.3522      9390.0285      21.097078      21.097078      21.097078    
     16000   200.71918     -3901.5071      22.390527     -3879.1166     -2529.0724      9411.6433      21.113253      21.113253      21.113253    
     16500   204.10692     -3902.1339      22.768435     -3879.3655      911.81142      9398.3193      21.103285      21.103285      21.103285    
     17000   193.15746     -3901.9755      21.547006     -3880.4285      1965.4929      9387.7705      21.095387      21.095387      21.095387    
     17500   189.6688      -3902.2088      21.157841     -3881.051      -1889.5978      9409.8817      21.111936      21.111936      21.111936    
     18000   198.7589      -3902.3257      22.171855     -3880.1538      1716.2812      9392.2264      21.098724      21.098724      21.098724    
     18500   199.45216     -3901.688       22.249189     -3879.4388     -835.50607      9405.0786      21.108343      21.108343      21.108343    
     19000   200.41457     -3902.4087      22.356547     -3880.0521      3278.0761      9380.7382      21.090118      21.090118      21.090118    
     19500   199.24588     -3902.4498      22.226178     -3880.2236     -2054.8521      9413.1259      21.114362      21.114362      21.114362    
     20000   194.61234     -3901.8582      21.7093       -3880.1489      1532.6096      9384.6501      21.093049      21.093049      21.093049    
Loop time of 945.871 on 8 procs for 20000 steps with 864 atoms

Performance: 3.654 ns/day, 6.569 hours/ns, 21.145 timesteps/s, 18.269 katom-step/s
79.7% CPU use with 1 MPI tasks x 8 OpenMP threads

MPI task timing breakdown:
Section |  min time  |  avg time  |  max time  |%varavg| %total
---------------------------------------------------------------
Pair    | 898.81     | 898.81     | 898.81     |   0.0 | 95.02
Neigh   | 0.002624   | 0.002624   | 0.002624   |   0.0 |  0.00
Comm    | 0.57113    | 0.57113    | 0.57113    |   0.0 |  0.06
Output  | 0.004553   | 0.004553   | 0.004553   |   0.0 |  0.00
Modify  | 46.382     | 46.382     | 46.382     |   0.0 |  4.90
Other   |            | 0.0966     |            |       |  0.01

Nlocal:            864 ave         864 max         864 min
Histogram: 1 0 0 0 0 0 0 0 0 0
Nghost:           3767 ave        3767 max        3767 min
Histogram: 1 0 0 0 0 0 0 0 0 0
Neighs:          82274 ave       82274 max       82274 min
Histogram: 1 0 0 0 0 0 0 0 0 0
FullNghs:       164548 ave      164548 max      164548 min
Histogram: 1 0 0 0 0 0 0 0 0 0

Total # of neighbors = 164548
Ave neighs/atom = 190.44907
Neighbor list builds = 1
Dangerous builds = 0
=== STAGE 3: NPT Production at 200 K ===
No /omp style for force computation currently active
Setting up Verlet run ...
  Unit style    : metal
  Current step  : 0
  Time step     : 0.001
Per MPI rank memory allocation (min/avg/max) = 20.35 | 20.35 | 20.35 Mbytes
   Step          Temp          PotEng         KinEng         TotEng         Press          Volume           Lx             Ly             Lz      
         0   194.61234     -3901.8582      21.7093       -3880.1489      1532.6096      9384.6501      21.093049      21.093049      21.093049    
       500   193.07622     -3901.6016      21.537943     -3880.0636     -3146.0373      9416.9698      21.117235      21.117235      21.117235    
      1000   208.19714     -3901.0802      23.224704     -3877.8555     -767.08803      9409.2633      21.111473      21.111473      21.111473    
      1500   214.36384     -3902.2662      23.912609     -3878.3536      2084.2783      9390.7907      21.097649      21.097649      21.097649    
      2000   204.33304     -3901.7013      22.793658     -3878.9077     -1280.3419      9404.2929      21.107755      21.107755      21.107755    
      2500   197.59178     -3901.7497      22.041661     -3879.7081      2745.1686      9385.2397      21.093491      21.093491      21.093491    
      3000   196.61145     -3902.991       21.932303     -3881.0587     -978.51958      9404.4816      21.107896      21.107896      21.107896    
      3500   191.29949     -3902.2308      21.339746     -3880.8911      10.828891      9401.9288      21.105986      21.105986      21.105986    
      4000   196.3203      -3901.7081      21.899825     -3879.8083      23.735921      9402.8271      21.106659      21.106659      21.106659    
      4500   198.59986     -3901.3536      22.154113     -3879.1994      1012.9627      9401.1692      21.105418      21.105418      21.105418    
      5000   206.47439     -3902.0613      23.032529     -3879.0287      1776.0705      9389.8613      21.096953      21.096953      21.096953    
      5500   192.93799     -3901.8045      21.522523     -3880.282      -2455.4843      9412.1093      21.113602      21.113602      21.113602    
      6000   195.85917     -3903.147       21.848385     -3881.2986      2046.3433      9387.3848      21.095098      21.095098      21.095098    
      6500   194.38483     -3901.8647      21.683921     -3880.1808      393.98449      9397.8609      21.102942      21.102942      21.102942    
      7000   204.52705     -3902.383       22.815301     -3879.5677     -833.65473      9402.1218      21.106131      21.106131      21.106131    
      7500   195.44412     -3902.2904      21.802086     -3880.4883     -826.90692      9400.3563      21.10481       21.10481       21.10481     
      8000   202.15636     -3901.9911      22.550846     -3879.4402     -2967.389       9416.2534      21.1167        21.1167        21.1167      
      8500   203.32841     -3901.3223      22.68159      -3878.6407      1966.8989      9389.3671      21.096582      21.096582      21.096582    
      9000   211.914       -3903.3503      23.639326     -3879.7109      1240.0916      9394.2968      21.100274      21.100274      21.100274    
      9500   204.70252     -3902.7517      22.834875     -3879.9169     -3550.5862      9423.3349      21.121992      21.121992      21.121992    
     10000   197.60306     -3901.863       22.042919     -3879.8201      3811.4489      9387.1719      21.094938      21.094938      21.094938    
     10500   199.12055     -3900.8813      22.212197     -3878.6691     -2511.091       9423.2778      21.121949      21.121949      21.121949    
     11000   207.24699     -3902.1279      23.118714     -3879.0092      3437.7404      9383.4119      21.092121      21.092121      21.092121    
     11500   194.59883     -3901.0555      21.707793     -3879.3477     -3650.4738      9421.329       21.120493      21.120493      21.120493    
     12000   196.65917     -3902.5084      21.937626     -3880.5708      1757.896       9390.8474      21.097691      21.097691      21.097691    
     12500   192.88606     -3901.9791      21.516731     -3880.4623     -2884.4298      9413.9111      21.114949      21.114949      21.114949    
     13000   200.60983     -3902.4254      22.378329     -3880.0471      1911.6624      9390.1004      21.097132      21.097132      21.097132    
     13500   190.48626     -3900.7836      21.249029     -3879.5345      1276.9029      9392.9952      21.099299      21.099299      21.099299    
     14000   209.57069     -3901.074       23.377926     -3877.6961     -3073.4097      9413.6717      21.11477       21.11477       21.11477     
     14500   197.05749     -3901.2453      21.98206      -3879.2633      2227.4015      9390.6051      21.09751       21.09751       21.09751     
     15000   195.37887     -3901.9469      21.794807     -3880.1521     -1567.674       9403.984       21.107524      21.107524      21.107524    
     15500   203.24658     -3903.0928      22.672462     -3880.4204     -4581.7747      9425.7655      21.123808      21.123808      21.123808    
     16000   190.18221     -3902.3537      21.215112     -3881.1386      773.12862      9392.6237      21.099021      21.099021      21.099021    
     16500   191.48349     -3901.8699      21.360271     -3880.5096     -661.03845      9407.4547      21.11012       21.11012       21.11012     
     17000   207.94891     -3902.5021      23.197014     -3879.3051      951.2763       9399.659       21.104288      21.104288      21.104288    
     17500   200.89222     -3901.9988      22.409829     -3879.589       445.35288      9395.3248      21.101043      21.101043      21.101043    
     18000   195.06751     -3902.4525      21.760075     -3880.6924     -4807.8886      9422.5312      21.121392      21.121392      21.121392    
     18500   193.9577      -3902.8103      21.636273     -3881.174       2573.8659      9383.4535      21.092152      21.092152      21.092152    
     19000   203.72174     -3902.0199      22.725467     -3879.2944     -1627.3827      9410.0638      21.112072      21.112072      21.112072    
     19500   204.94145     -3902.5214      22.861528     -3879.6598     -319.82503      9404.0884      21.107602      21.107602      21.107602    
     20000   200.7547      -3902.7435      22.394489     -3880.349      -3555.7268      9416.6636      21.117006      21.117006      21.117006    
     20500   200.91472     -3902.3139      22.412339     -3879.9016      796.16364      9393.9099      21.099984      21.099984      21.099984    
     21000   209.06351     -3901.9306      23.321349     -3878.6092     -205.85747      9399.4402      21.104124      21.104124      21.104124    
     21500   201.48653     -3901.1762      22.476125     -3878.7001      837.45099      9391.3009      21.098031      21.098031      21.098031    
     22000   199.42187     -3902.4593      22.24581      -3880.2135      9.3118979      9394.1178      21.10014       21.10014       21.10014     
     22500   196.66875     -3902.3273      21.938695     -3880.3886     -331.51386      9397.5021      21.102673      21.102673      21.102673    
     23000   199.55664     -3901.8627      22.260844     -3879.6019     -3134.1239      9415.3297      21.116009      21.116009      21.116009    
     23500   196.36013     -3901.9081      21.904268     -3880.0039      566.17505      9389.9258      21.097001      21.097001      21.097001    
     24000   197.06294     -3903.5826      21.982667     -3881.6        -3336.6872      9410.7775      21.112606      21.112606      21.112606    
     24500   193.95894     -3902.5334      21.636411     -3880.897       7326.4142      9361.8673      21.075966      21.075966      21.075966    
     25000   192.27503     -3901.8366      21.448569     -3880.388      -1543.9411      9401.8618      21.105936      21.105936      21.105936    
     25500   202.48139     -3901.9889      22.587103     -3879.4018      1402.9925      9391.2472      21.09799       21.09799       21.09799     
     26000   201.42389     -3903.0488      22.469138     -3880.5796     -358.04346      9398.8483      21.103681      21.103681      21.103681    
     26500   203.2634      -3902.4094      22.674339     -3879.7351      1008.5595      9394.065       21.1001        21.1001        21.1001      
     27000   209.26678     -3902.0504      23.344024     -3878.7064     -2734.6391      9415.442       21.116093      21.116093      21.116093    
     27500   196.90607     -3901.1618      21.965169     -3879.1966      2053.9799      9388.8658      21.096207      21.096207      21.096207    
     28000   199.51291     -3902.5386      22.255966     -3880.2826     -2197.729       9406.5061      21.109411      21.109411      21.109411    
     28500   195.11965     -3902.1391      21.76589      -3880.3733     -2268.1886      9405.884       21.108946      21.108946      21.108946    
     29000   199.05816     -3901.7875      22.205238     -3879.5823     -1447.0505      9407.7587      21.110348      21.110348      21.110348    
     29500   200.6052      -3901.2317      22.377812     -3878.8539     -1150.4474      9404.5417      21.107941      21.107941      21.107941    
     30000   192.95854     -3902.5836      21.524816     -3881.0588      1285.1492      9389.471       21.09666       21.09666       21.09666     
     30500   191.19153     -3902.3646      21.327703     -3881.0368     -1440.7988      9403.262       21.106984      21.106984      21.106984    
     31000   198.50682     -3901.9534      22.143734     -3879.8097      423.76102      9395.0405      21.100831      21.100831      21.100831    
     31500   200.3492      -3901.8967      22.349255     -3879.5474     -574.06174      9398.0508      21.103084      21.103084      21.103084    
     32000   207.33086     -3902.864       23.12807      -3879.7359     -2671.7916      9409.3656      21.11155       21.11155       21.11155     
     32500   198.28858     -3903.3062      22.11939      -3881.1868      2366.6684      9385.1311      21.093409      21.093409      21.093409    
     33000   191.60302     -3902.4768      21.373605     -3881.1032     -3269.3492      9414.8089      21.11562       21.11562       21.11562     
     33500   194.47666     -3902.4043      21.694165     -3880.7102      5470.5865      9367.3871      21.080108      21.080108      21.080108    
     34000   201.82006     -3901.6508      22.513332     -3879.1375     -2912.5568      9415.7901      21.116353      21.116353      21.116353    
     34500   194.70538     -3902.0798      21.719678     -3880.3601     -1548.9435      9406.1859      21.109171      21.109171      21.109171    
     35000   193.75506     -3902.3281      21.613669     -3880.7145      2106.8524      9387.1631      21.094932      21.094932      21.094932    
     35500   193.9461      -3902.83        21.63498      -3881.1951     -2170.0869      9401.9135      21.105975      21.105975      21.105975    
     36000   201.53826     -3902.3838      22.481896     -3879.9019     -366.90251      9395.742       21.101356      21.101356      21.101356    
     36500   198.99899     -3901.6342      22.198637     -3879.4355     -4068.6747      9423.2967      21.121964      21.121964      21.121964    
     37000   199.85695     -3902.2045      22.294344     -3879.9102      2950.9394      9380.1288      21.089661      21.089661      21.089661    
     37500   193.75881     -3903.3428      21.614087     -3881.7287     -615.56192      9398.8624      21.103692      21.103692      21.103692    
     38000   204.08033     -3901.8893      22.765468     -3879.1238     -1045.0181      9405.0418      21.108316      21.108316      21.108316    
     38500   201.94469     -3901.6945      22.527235     -3879.1673      3337.8869      9380.8677      21.090215      21.090215      21.090215    
     39000   201.74285     -3902.2453      22.504719     -3879.7406     -4244.6178      9416.8234      21.117126      21.117126      21.117126    
     39500   199.2633      -3902.6831      22.228121     -3880.455       2590.107       9378.2616      21.088262      21.088262      21.088262    
     40000   202.82665     -3900.6735      22.625619     -3878.0479     -1039.9399      9407.798       21.110377      21.110377      21.110377    
     40500   204.98465     -3901.5783      22.866346     -3878.7119     -2712.1879      9413.404       21.11457       21.11457       21.11457     
     41000   193.42117     -3901.8051      21.576423     -3880.2287      881.44374      9391.8804      21.098465      21.098465      21.098465    
     41500   193.56152     -3902.4723      21.592078     -3880.8802     -1300.0723      9401.2159      21.105453      21.105453      21.105453    
     42000   190.17363     -3903.0598      21.214154     -3881.8457      866.19728      9398.0362      21.103073      21.103073      21.103073    
     42500   200.49378     -3901.6659      22.365383     -3879.3005     -209.00766      9403.8957      21.107458      21.107458      21.107458    
     43000   206.08453     -3902.4634      22.989039     -3879.4743     -1278.3029      9408.3115      21.110761      21.110761      21.110761    
     43500   196.68341     -3901.9107      21.94033      -3879.9703      7.3035433      9402.6693      21.10654       21.10654       21.10654     
     44000   196.60465     -3903.4916      21.931544     -3881.56       -1579.5761      9405.1287      21.10838       21.10838       21.10838     
     44500   199.42254     -3903.1445      22.245884     -3880.8987      2063.0843      9385.436       21.093638      21.093638      21.093638    
     45000   200.21408     -3902.6956      22.334182     -3880.3614      322.36425      9399.6883      21.10431       21.10431       21.10431     
     45500   203.60208     -3902.3412      22.712118     -3879.6291     -1768.8331      9410.7494      21.112585      21.112585      21.112585    
     46000   216.15618     -3901.801       24.112547     -3877.6884      2467.9848      9387.7587      21.095378      21.095378      21.095378    
     46500   204.01113     -3901.7251      22.757749     -3878.9673      441.87294      9399.1121      21.103878      21.103878      21.103878    
     47000   197.11374     -3901.8615      21.988334     -3879.8732     -1525.2498      9403.3826      21.107074      21.107074      21.107074    
     47500   202.04986     -3902.3057      22.538966     -3879.7668     -170.5698       9402.343       21.106296      21.106296      21.106296    
     48000   200.21826     -3900.8165      22.334648     -3878.4819     -857.86033      9405.6053      21.108737      21.108737      21.108737    
     48500   202.72678     -3901.4064      22.614477     -3878.792       1246.6868      9385.3776      21.093594      21.093594      21.093594    
     49000   195.33982     -3900.9008      21.790451     -3879.1104     -2436.4574      9409.3014      21.111502      21.111502      21.111502    
     49500   193.11569     -3901.471       21.542346     -3879.9286      63.112624      9397.6144      21.102757      21.102757      21.102757    
     50000   205.69821     -3902.1904      22.945945     -3879.2444     -2340.3561      9406.8964      21.109703      21.109703      21.109703    
Loop time of 1917.89 on 8 procs for 50000 steps with 864 atoms

Performance: 2.252 ns/day, 10.655 hours/ns, 26.070 timesteps/s, 22.525 katom-step/s
81.5% CPU use with 1 MPI tasks x 8 OpenMP threads

MPI task timing breakdown:
Section |  min time  |  avg time  |  max time  |%varavg| %total
---------------------------------------------------------------
Pair    | 1790.5     | 1790.5     | 1790.5     |   0.0 | 93.36
Neigh   | 0          | 0          | 0          |   0.0 |  0.00
Comm    | 1.1864     | 1.1864     | 1.1864     |   0.0 |  0.06
Output  | 0.009      | 0.009      | 0.009      |   0.0 |  0.00
Modify  | 125.95     | 125.95     | 125.95     |   0.0 |  6.57
Other   |            | 0.2093     |            |       |  0.01

Nlocal:            864 ave         864 max         864 min
Histogram: 1 0 0 0 0 0 0 0 0 0
Nghost:           3767 ave        3767 max        3767 min
Histogram: 1 0 0 0 0 0 0 0 0 0
Neighs:          85256 ave       85256 max       85256 min
Histogram: 1 0 0 0 0 0 0 0 0 0
FullNghs:       170512 ave      170512 max      170512 min
Histogram: 1 0 0 0 0 0 0 0 0 0

Total # of neighbors = 170512
Ave neighs/atom = 197.35185
Neighbor list builds = 0
Dangerous builds = 0

=== FINAL RESULTS: FCC at 200 K ===
Atoms: 864 | PE/atom: -4.51609411851523 eV/atom
WARNING: Detected non-ASCII characters in input. Will try to continue by replacing with ASCII equivalents where known. (src/input.cpp:479)
Volume: 9406.89636150955 …³ | Area: 445.619553899048 ²
==========================================
FCC 200 864 -4.51609411851523 9406.89636150955 21.1097028377722 21.1097028377722 21.1097028377722 445.619553899048
Simulation complete!
Total wall time: 0:47:44
