LAMMPS (10 Sep 2025)
  using 8 OpenMP thread(s) per MPI task
Loaded 1 plugins from C:\Users\harsh\Downloads\LAMMPS 64-bit 10Sep2025\plugins
using multi-threaded neighbor list subroutines
Reading data file ...
  orthogonal box = (0 0 0) to (15.750804 27.281192 25.720954)
  1 by 1 by 1 MPI processor grid
  reading atoms ...
  432 atoms
  read_data CPU = 0.003 seconds
=== STAGE 1: Energy Minimization ===
Switching to 'neigh_modify every 1 delay 0 check yes' setting during minimization
No /omp style for force computation currently active
Neighbor list info ...
  update: every = 1 steps, delay = 0 steps, check = yes
  max neighbors/atom: 4000, page size: 100000
  master list distance cutoff = 8
  ghost atom cutoff = 8
  binsize = 4, bins = 4 7 7
  2 neighbor lists, perpetual/occasional/extra = 2 0 0
  (1) pair meam, perpetual
      attributes: full, newton on, omp
      pair build: full/bin/atomonly/omp
      stencil: full/bin/3d
      bin: standard
  (2) pair meam, perpetual, half/full from (1)
      attributes: half, newton on, omp
      pair build: halffull/newton/omp
      stencil: none
      bin: none
Setting up cg style minimization ...
  Unit style    : metal
  Current step  : 0
Per MPI rank memory allocation (min/avg/max) = 19.38 | 19.38 | 19.38 Mbytes
   Step          Temp          PotEng         KinEng         TotEng         Press          Volume           Lx             Ly             Lz      
         0   0             -1091.0252      0             -1091.0252     -140904.24      11052.312      15.750804      27.281192      25.720954    
        95   0             -1432.9922      0             -1432.9922     -59275.967      11052.312      15.750804      27.281192      25.720954    
Loop time of 0.839922 on 8 procs for 95 steps with 432 atoms

96.7% CPU use with 1 MPI tasks x 8 OpenMP threads

Minimization stats:
  Stopping criterion = energy tolerance
  Energy initial, next-to-last, final = 
     -1091.02518468556  -1432.99076923064  -1432.99220173935
  Force two-norm initial, final = 6.2281798 15.318753
  Force max component initial, final = 0.87140266 5.1639993
  Final line search alpha, max atom move = 0.021720082 0.11216249
  Iterations, force evaluations = 95 224

MPI task timing breakdown:
Section |  min time  |  avg time  |  max time  |%varavg| %total
---------------------------------------------------------------
Pair    | 0.76918    | 0.76918    | 0.76918    |   0.0 | 91.58
Neigh   | 0.00336    | 0.00336    | 0.00336    |   0.0 |  0.40
Comm    | 0.001471   | 0.001471   | 0.001471   |   0.0 |  0.18
Output  | 0          | 0          | 0          |   0.0 |  0.00
Modify  | 0.061822   | 0.061822   | 0.061822   |   0.0 |  7.36
Other   |            | 0.004092   |            |       |  0.49

Nlocal:            432 ave         432 max         432 min
Histogram: 1 0 0 0 0 0 0 0 0 0
Nghost:           1869 ave        1869 max        1869 min
Histogram: 1 0 0 0 0 0 0 0 0 0
Neighs:          17516 ave       17516 max       17516 min
Histogram: 1 0 0 0 0 0 0 0 0 0
FullNghs:        35032 ave       35032 max       35032 min
Histogram: 1 0 0 0 0 0 0 0 0 0

Total # of neighbors = 35032
Ave neighs/atom = 81.092593
Neighbor list builds = 4
Dangerous builds = 0
Minimized PE/atom: -3.31711157810034 eV/atom
=== STAGE 2: NPT Equilibration at 650 K ===
No /omp style for force computation currently active
Setting up Verlet run ...
  Unit style    : metal
  Current step  : 0
  Time step     : 0.002
Per MPI rank memory allocation (min/avg/max) = 18.26 | 18.26 | 18.26 Mbytes
   Step          Temp          PotEng         KinEng         TotEng         Press          Volume           Lx             Ly             Lz      
         0   650           -1432.9922      36.21223      -1396.78       -55776.344      11052.312      15.750804      27.281192      25.720954    
       500   1259.9654     -1732.1776      70.194088     -1661.9835     -25315.053      6003.9813      12.851824      22.260013      20.986941    
      1000   715.34486     -1879.2729      39.852665     -1839.4203      4507.8381      4997.4519      12.089301      20.939284      19.741747    
      1500   655.21133     -1904.4809      36.502558     -1867.9783      405.13891      4870.9531      11.986424      20.761096      19.573749    
      2000   691.62419     -1916.2382      38.53116      -1877.707      -1305.6245      4846.8945      11.966657      20.726859      19.54147     
      2500   628.27525     -1927.0129      35.00192      -1892.011       211.65282      4808.8099      11.935232      20.672428      19.490152    
      3000   649.55239     -1927.7289      36.187292     -1891.5416     -520.90058      4803.3629      11.930724      20.66462       19.482791    
      3500   664.07643     -1923.5142      36.996443     -1886.5178     -3605.5895      4815.7947      11.941008      20.682433      19.499584    
      4000   703.46066     -1926.953       39.190583     -1887.7624     -1409.0301      4808.7146      11.935153      20.672292      19.490024    
      4500   643.8803      -1930.305       35.871294     -1894.4337     -3095.0587      4807.0029      11.933737      20.669839      19.487711    
      5000   619.91595     -1930.4892      34.536213     -1895.953      -2922.0758      4801.145       11.928888      20.661439      19.479792    
      5500   650.44821     -1929.3142      36.2372       -1893.077      -4353.3204      4805.4704      11.932469      20.667642      19.48564     
      6000   655.53014     -1930.7849      36.52032      -1894.2645     -3482.5647      4796.2647      11.924844      20.654436      19.473189    
      6500   671.81739     -1936.1299      37.427701     -1898.7022     -4190.4278      4785.1398      11.915617      20.638455      19.458122    
      7000   651.11517     -1936.7056      36.274357     -1900.4312      258.8638       4778.5965      11.910184      20.629043      19.449248    
      7500   613.78849     -1936.6499      34.194846     -1902.4551      4286.4978      4761.7594      11.896179      20.604786      19.426379    
      8000   670.61632     -1940.0738      37.360788     -1902.713       4390.034       4750.1707      11.88652       20.588057      19.410607    
      8500   659.66867     -1937.465       36.750882     -1900.7141      6863.0506      4765.2313      11.899069      20.609793      19.431099    
      9000   652.29035     -1941.0815      36.339827     -1904.7417      5230.4493      4750.2048      11.886549      20.588107      19.410653    
      9500   639.31557     -1942.0881      35.616988     -1906.4711     -1086.9057      4764.9556      11.89884       20.609395      19.430724    
     10000   629.91852     -1942.5613      35.093468     -1907.4678      1629.9864      4751.437       11.887577      20.589887      19.412331    
     10500   624.90275     -1944.2175      34.814034     -1909.4035      14452.902      4729.3645      11.86914       20.557954      19.382225    
     11000   703.84429     -1940.8602      39.211956     -1901.6483      15312.91       4734.0577      11.873065      20.564752      19.388634    
     11500   673.24463     -1941.8667      37.507214     -1904.3595      4904.2825      4752.8628      11.888766      20.591946      19.414273    
     12000   644.10798     -1942.4745      35.883979     -1906.5905      12316.876      4747.071       11.883934      20.583578      19.406384    
     12500   646.45009     -1941.3611      36.01446      -1905.3467      2231.3791      4757.8309      11.892906      20.599118      19.421035    
     13000   702.35227     -1939.4069      39.128834     -1900.278       1400.0805      4775.3856      11.907515      20.624422      19.444891    
     13500   634.51018     -1943.0307      35.349274     -1907.6815      4118.1195      4754.2697      11.889938      20.593978      19.416188    
     14000   673.15483     -1945.6781      37.502211     -1908.1759      3120.6683      4740.0111      11.87804       20.573369      19.396758    
     14500   632.23359     -1941.3281      35.222443     -1906.1056      2639.2526      4748.8126      11.885388      20.586095      19.408757    
     15000   665.5654      -1940.8659      37.079395     -1903.7865      2490.7671      4763.8391      11.897911      20.607785      19.429206    
     15500   654.03537     -1944.1974      36.437044     -1907.7604     -2970.2435      4774.1177      11.906461      20.622596      19.44317     
     16000   647.56345     -1945.1821      36.076487     -1909.1056      391.74628      4766.604       11.900212      20.611772      19.432965    
     16500   693.94877     -1938.4597      38.660665     -1899.799      -6786.6748      4805.2471      11.932284      20.667322      19.485338    
     17000   642.35008     -1943.213       35.786044     -1907.427      -9294.2607      4783.4138      11.914184      20.635973      19.455782    
     17500   667.105       -1945.93        37.165168     -1908.7649     -3384.2007      4768.764       11.902009      20.614885      19.4359      
     18000   621.48928     -1943.4983      34.623865     -1908.8744      2285.9372      4762.9418      11.897163      20.606491      19.427986    
     18500   644.28182     -1942.0086      35.893664     -1906.1149      428.70334      4758.802       11.893716      20.60052       19.422356    
     19000   632.70518     -1940.7375      35.248716     -1905.4888     -5158.5792      4777.675       11.909418      20.627717      19.447998    
     19500   632.24779     -1943.1793      35.223234     -1907.9561     -407.33199      4763.3217      11.89748       20.607039      19.428503    
     20000   650.6353      -1944.5019      36.247623     -1908.2543      6193.5542      4748.3878      11.885033      20.585481      19.408178    
Loop time of 190.275 on 8 procs for 20000 steps with 432 atoms

Performance: 18.163 ns/day, 1.321 hours/ns, 105.111 timesteps/s, 45.408 katom-step/s
91.2% CPU use with 1 MPI tasks x 8 OpenMP threads

MPI task timing breakdown:
Section |  min time  |  avg time  |  max time  |%varavg| %total
---------------------------------------------------------------
Pair    | 168.16     | 168.16     | 168.16     |   0.0 | 88.38
Neigh   | 0.034485   | 0.034485   | 0.034485   |   0.0 |  0.02
Comm    | 0.16321    | 0.16321    | 0.16321    |   0.0 |  0.09
Output  | 0.00253    | 0.00253    | 0.00253    |   0.0 |  0.00
Modify  | 21.886     | 21.886     | 21.886     |   0.0 | 11.50
Other   |            | 0.03248    |            |       |  0.02

Nlocal:            432 ave         432 max         432 min
Histogram: 1 0 0 0 0 0 0 0 0 0
Nghost:           2846 ave        2846 max        2846 min
Histogram: 1 0 0 0 0 0 0 0 0 0
Neighs:          41549 ave       41549 max       41549 min
Histogram: 1 0 0 0 0 0 0 0 0 0
FullNghs:        83098 ave       83098 max       83098 min
Histogram: 1 0 0 0 0 0 0 0 0 0

Total # of neighbors = 83098
Ave neighs/atom = 192.35648
Neighbor list builds = 38
Dangerous builds = 0
=== STAGE 3: NPT Production at 650 K ===
No /omp style for force computation currently active
Setting up Verlet run ...
  Unit style    : metal
  Current step  : 0
  Time step     : 0.001
Per MPI rank memory allocation (min/avg/max) = 19 | 19 | 19 Mbytes
   Step          Temp          PotEng         KinEng         TotEng         Press          Volume           Lx             Ly             Lz      
         0   650.6353      -1944.5019      36.247623     -1908.2543      6193.5542      4748.3878      11.885033      20.585481      19.408178    
       500   647.00281     -1942.0274      36.045253     -1905.9822      10657.618      4738.895       11.877108      20.571754      19.395236    
      1000   675.66578     -1941.7489      37.642099     -1904.1068      6256.7816      4755.4666      11.890936      20.595706      19.417817    
      1500   641.59816     -1943.6433      35.744154     -1907.8991      10537.806      4730.5333      11.870118      20.559648      19.383822    
      2000   710.63078     -1941.3433      39.590039     -1901.7533      13237.377      4733.0467      11.87222       20.563288      19.387254    
      2500   668.54036     -1941.229       37.245134     -1903.9838      3580.3993      4751.4275      11.887569      20.589873      19.412318    
      3000   648.82591     -1943.1567      36.14682      -1907.0099      1516.746       4755.446       11.890919      20.595676      19.417789    
      3500   647.64974     -1942.3973      36.081294     -1906.316      -2732.2314      4780.2704      11.911574      20.631451      19.451519    
      4000   641.47752     -1939.7586      35.737433     -1904.0212     -9028.7882      4791.0008      11.92048       20.646877      19.466063    
      4500   630.75624     -1941.8117      35.140138     -1906.6716     -6502.5683      4785.34        11.915783      20.638742      19.458393    
      5000   649.13001     -1943.6195      36.163761     -1907.4557     -6629.7831      4784.0611      11.914722      20.636904      19.456659    
      5500   648.3343      -1945.9633      36.119432     -1909.8439      1109.4782      4758.1534      11.893175      20.599584      19.421474    
      6000   601.17129     -1942.4253      33.491928     -1908.9333      5243.2606      4750.1519      11.886505      20.58803       19.410581    
      6500   645.01126     -1942.108       35.934301     -1906.1737      2617.9232      4762.5431      11.896831      20.605916      19.427444    
      7000   666.31427     -1941.938       37.121116     -1904.8168     -3997.0904      4771.2379      11.904067      20.618449      19.43926     
      7500   673.80927     -1942.7601      37.538671     -1905.2214     -3023.0747      4775.6924      11.90777       20.624863      19.445308    
      8000   682.55425     -1942.5218      38.025864     -1904.4959     -5043.939       4774.2938      11.906608      20.62285       19.443409    
      8500   652.42083     -1944.1187      36.347097     -1907.7716     -581.08644      4765.7132      11.89947       20.610487      19.431754    
      9000   637.02089     -1941.6503      35.489149     -1906.1612      5762.5688      4761.0298      11.895571      20.603734      19.425386    
      9500   640.52529     -1942.1861      35.684383     -1906.5017      3697.7948      4753.5311      11.889323      20.592911      19.415183    
     10000   660.25198     -1943.7926      36.783379     -1907.0093     -1873.5463      4769.6267      11.902727      20.616128      19.437071    
     10500   622.0981      -1943.3837      34.657783     -1908.726       298.9368       4762.7965      11.897042      20.606282      19.427789    
     11000   651.25135     -1944.6092      36.281944     -1908.3272     -499.82182      4766.02        11.899726      20.61093       19.432171    
     11500   625.11383     -1942.5148      34.825793     -1907.689       491.0979       4766.0877      11.899782      20.611027      19.432263    
     12000   684.20249     -1944.2277      38.117689     -1906.11       -651.72888      4767.8725      11.901267      20.6136        19.434688    
     12500   666.39895     -1942.9883      37.125833     -1905.8624      5522.7621      4763.1015      11.897296      20.606722      19.428204    
     13000   620.26983     -1944.1519      34.555929     -1909.596      -1079.6275      4759.8524      11.894591      20.602035      19.423785    
     13500   599.50824     -1943.9047      33.399277     -1910.5055     -4401.3793      4775.0256      11.907216      20.623903      19.444403    
     14000   645.04331     -1943.4817      35.936087     -1907.5456     -5902.3321      4782.2876      11.913249      20.634353      19.454255    
     14500   637.11776     -1942.2732      35.494546     -1906.7787     -2177.7891      4773.1222      11.905634      20.621163      19.441819    
     15000   600.50544     -1944.1648      33.454832     -1910.7099     -6053.1732      4774.3502      11.906655      20.622931      19.443486    
     15500   664.47716     -1943.8534      37.018768     -1906.8346      1295.8818      4770.1526      11.903164      20.616885      19.437786    
     16000   607.77115     -1942.976       33.859613     -1909.1164      1821.2642      4765.6006      11.899377      20.610325      19.431601    
     16500   636.48185     -1943.1635      35.459118     -1907.7044     -4278.6621      4780.7439      11.911967      20.632133      19.452161    
     17000   662.4132      -1939.6638      36.903783     -1902.76       -2283.3025      4783.604       11.914342      20.636246      19.45604     
     17500   614.92061     -1941.0685      34.257917     -1906.8106      4389.4996      4770.3303      11.903312      20.617141      19.438027    
     18000   642.34004     -1943.1771      35.785485     -1907.3916     -8894.3355      4781.588       11.912668      20.633347      19.453306    
     18500   651.3632      -1942.7513      36.288175     -1906.4631     -405.05132      4770.7029      11.903622      20.617678      19.438533    
     19000   653.00485     -1938.713       36.379633     -1902.3333      5910.4778      4757.7433      11.892834      20.598992      19.420916    
     19500   690.12551     -1944.1037      38.447667     -1905.656       13078.216      4733.8142      11.872862      20.5644        19.388302    
     20000   649.20139     -1944.1816      36.167738     -1908.0139      3860.2002      4750.5448      11.886832      20.588598      19.411116    
     20500   642.06608     -1944.5506      35.770222     -1908.7803      426.61924      4758.3193      11.893313      20.599823      19.421699    
     21000   709.32512     -1945.6209      39.517299     -1906.1036      3508.745       4756.1902      11.891539      20.59675       19.418802    
     21500   706.85377     -1947.6015      39.379617     -1908.2219     -1258.2503      4770.3602      11.903337      20.617184      19.438068    
     22000   671.93153     -1946.9216      37.43406      -1909.4876     -3686.9135      4769.9887      11.903028      20.616649      19.437563    
     22500   651.24486     -1946.7026      36.281582     -1910.421      -8638.9785      4776.5273      11.908464      20.626065      19.446441    
     23000   668.94456     -1946.5195      37.267652     -1909.2518     -5135.6597      4769.3987      11.902537      20.615799      19.436762    
     23500   692.79572     -1944.1538      38.596427     -1905.5574      814.94907      4750.7153      11.886975      20.588844      19.411348    
     24000   664.09817     -1944.3212      36.997654     -1907.3236      6902.2793      4745.655       11.882753      20.581531      19.404454    
     24500   621.25536     -1945.2365      34.610834     -1910.6256      300.98454      4765.0371      11.898908      20.609513      19.430835    
     25000   666.73626     -1944.0417      37.144625     -1906.8971      2406.5877      4757.8481      11.892921      20.599143      19.421058    
     25500   671.56761     -1945.4503      37.413785     -1908.0366      4492.8664      4755.8031      11.891217      20.596191      19.418275    
     26000   672.06906     -1945.9301      37.441722     -1908.4883      165.18441      4758.8261      11.893736      20.600554      19.422389    
     26500   606.59196     -1948.8263      33.793919     -1915.0324      3611.1947      4740.8693      11.878757      20.574611      19.397929    
     27000   636.75191     -1946.7323      35.474164     -1911.2581      1038.676       4748.7747      11.885356      20.58604       19.408705    
     27500   664.40718     -1946.3064      37.01487      -1909.2915      843.07872      4757.8362      11.892911      20.599126      19.421042    
     28000   654.50773     -1944.0864      36.46336      -1907.623       183.49388      4767.2503      11.90075       20.612703      19.433843    
     28500   636.25386     -1946.4728      35.446417     -1911.0263     -6924.0191      4760.3126      11.894974      20.602699      19.424411    
     29000   629.51341     -1945.3612      35.070899     -1910.2904     -5623.146       4774.2741      11.906591      20.622821      19.443382    
     29500   637.61888     -1943.5668      35.522463     -1908.0444      42.482101      4768.2328      11.901567      20.614119      19.435178    
     30000   670.14618     -1943.6972      37.334596     -1906.3626     -8388.2865      4790.1821      11.919801      20.645701      19.464954    
     30500   668.60972     -1947.4835      37.248998     -1910.2345     -15633.769      4802.0468      11.929634      20.662733      19.481011    
     31000   663.67261     -1947.9359      36.973946     -1910.9619     -14390.769      4780.8812      11.912081      20.63233       19.452347    
     31500   632.53678     -1944.0189      35.239334     -1908.7796     -6737.4001      4779.6983      11.911099      20.630628      19.450743    
     32000   674.79703     -1944.5299      37.5937       -1906.9362      170.79796      4772.3341      11.904979      20.620028      19.440748    
     32500   675.63827     -1947.1805      37.640566     -1909.54       -2697.8381      4764.5943      11.898539      20.608874      19.430233    
     33000   592.41579     -1944.3646      33.004149     -1911.3605      1287.6865      4755.4255      11.890902      20.595646      19.417761    
     33500   645.90984     -1944.6569      35.984362     -1908.6725     -4004.3168      4771.0072      11.903875      20.618116      19.438947    
     34000   630.84444     -1946.7402      35.145052     -1911.5951     -2820.7606      4764.732       11.898654      20.609073      19.43042     
     34500   614.41353     -1948.1346      34.229668     -1913.905      -8862.9442      4776.1107      11.908118      20.625465      19.445875    
     35000   623.7148      -1946.346       34.747852     -1911.5982     -7461.9276      4779.8145      11.911195      20.630796      19.450901    
     35500   641.07781     -1944.8012      35.715164     -1909.0861     -3704.4719      4770.5784      11.903518      20.617499      19.438364    
     36000   660.28177     -1948.4007      36.785039     -1911.6157      1242.6444      4753.6708      11.889439      20.593113      19.415373    
     36500   748.4275      -1945.3513      41.695736     -1903.6556     -6422.8821      4778.7525      11.910313      20.629268      19.44946     
     37000   638.51343     -1947.1015      35.5723       -1911.5292      753.69637      4756.9746      11.892193      20.597882      19.41987     
     37500   621.557       -1946.7677      34.627638     -1912.14       -3494.6254      4762.9238      11.897148      20.606466      19.427962    
     38000   634.02149     -1944.2143      35.322049     -1908.8922     -2054.5573      4774.0702      11.906422      20.622528      19.443106    
     38500   660.8902      -1944.8938      36.818935     -1908.0749     -5578.1639      4779.6093      11.911025      20.6305        19.450622    
     39000   629.64264     -1946.2666      35.078098     -1911.1885     -4649.7943      4756.3985      11.891713      20.597051      19.419086    
     39500   625.39976     -1946.6037      34.841723     -1911.762       524.22776      4743.869       11.881262      20.578949      19.402019    
     40000   673.59326     -1945.8865      37.526637     -1908.3599     -1458.017       4748.2862      11.884948      20.585334      19.408039    
     40500   634.18935     -1945.6033      35.3314       -1910.2719      8952.1668      4751.8097      11.887887      20.590425      19.412839    
     41000   656.49041     -1947.8598      36.573818     -1911.286      -2267.4695      4755.2906      11.890789      20.595452      19.417578    
     41500   671.59755     -1946.4824      37.415454     -1909.067      -223.66682      4751.3881      11.887536      20.589816      19.412265    
     42000   652.72809     -1946.152       36.364215     -1909.7878     -7277.958       4765.8275      11.899566      20.610652      19.431909    
     42500   684.51179     -1949.2303      38.13492      -1911.0953      197.12187      4752.5898      11.888538      20.591552      19.413901    
     43000   652.96042     -1947.7653      36.377158     -1911.3881     -11748.841      4771.2751      11.904098      20.618502      19.43931     
     43500   641.20605     -1944.9356      35.722309     -1909.2133     -6306.8617      4780.1438      11.911469      20.631269      19.451347    
     44000   674.09483     -1947.7157      37.55458      -1910.1611     -8542.7185      4771.3541      11.904164      20.618616      19.439418    
     44500   606.33825     -1947.0429      33.779785     -1913.2631      5.022065       4746.1339      11.883152      20.582224      19.405106    
     45000   629.77832     -1945.3929      35.085657     -1910.3072      5145.7809      4749.0082      11.885551      20.586378      19.409023    
     45500   684.66453     -1946.7488      38.14343      -1908.6053     -466.00679      4745.6044      11.88271       20.581458      19.404385    
     46000   647.35407     -1947.0962      36.064822     -1911.0314      2811.1922      4746.6358      11.883571      20.582949      19.405791    
     46500   665.23671     -1949.0783      37.061084     -1912.0172      10424.657      4726.5011      11.866744      20.553804      19.378313    
     47000   616.33441     -1944.344       34.336682     -1910.0074      10962.572      4730.0576      11.86972       20.558958      19.383172    
     47500   640.04816     -1945.832       35.657801     -1910.1742     -2391.206       4760.1252      11.894818      20.602429      19.424156    
     48000   627.71473     -1948.4295      34.970692     -1913.4588      3344.1279      4747.4791      11.884275      20.584168      19.40694     
     48500   618.61496     -1946.1875      34.463734     -1911.7237      9840.1455      4735.8185      11.874537      20.567301      19.391038    
     49000   637.6333      -1943.6833      35.523267     -1908.16        7175.569       4752.4035      11.888383      20.591283      19.413647    
     49500   631.65857     -1945.8364      35.190408     -1910.646       6712.3114      4745.5763      11.882687      20.581418      19.404347    
     50000   649.77156     -1945.2636      36.199503     -1909.0641      6773.0467      4739.3826      11.877515      20.57246       19.395901    
Loop time of 478.404 on 8 procs for 50000 steps with 432 atoms

Performance: 9.030 ns/day, 2.658 hours/ns, 104.514 timesteps/s, 45.150 katom-step/s
91.3% CPU use with 1 MPI tasks x 8 OpenMP threads

MPI task timing breakdown:
Section |  min time  |  avg time  |  max time  |%varavg| %total
---------------------------------------------------------------
Pair    | 423.93     | 423.93     | 423.93     |   0.0 | 88.61
Neigh   | 0.010335   | 0.010335   | 0.010335   |   0.0 |  0.00
Comm    | 0.40112    | 0.40112    | 0.40112    |   0.0 |  0.08
Output  | 0.005615   | 0.005615   | 0.005615   |   0.0 |  0.00
Modify  | 53.989     | 53.989     | 53.989     |   0.0 | 11.29
Other   |            | 0.07176    |            |       |  0.02

Nlocal:            432 ave         432 max         432 min
Histogram: 1 0 0 0 0 0 0 0 0 0
Nghost:           2899 ave        2899 max        2899 min
Histogram: 1 0 0 0 0 0 0 0 0 0
Neighs:          41566 ave       41566 max       41566 min
Histogram: 1 0 0 0 0 0 0 0 0 0
FullNghs:        83132 ave       83132 max       83132 min
Histogram: 1 0 0 0 0 0 0 0 0 0

Total # of neighbors = 83132
Ave neighs/atom = 192.43519
Neighbor list builds = 9
Dangerous builds = 0

=== FINAL RESULTS: HCP at 650 K ===
Atoms: 432 | PE/atom: -4.5060335711754 eV/atom
WARNING: Detected non-ASCII characters in input. Will try to continue by replacing with ASCII equivalents where known. (src/input.cpp:479)
Volume: 4739.38256061518 …³ | Area: 244.349699429628 ²
==========================================
HCP 650 432 -4.5060335711754 4739.38256061518 11.877515090921 20.5724596061684 19.3959009226451 244.349699429628
Simulation complete!
Total wall time: 0:11:09
