LAMMPS (10 Sep 2025)
  using 8 OpenMP thread(s) per MPI task
Loaded 1 plugins from C:\Users\harsh\Downloads\LAMMPS 64-bit 10Sep2025\plugins
using multi-threaded neighbor list subroutines
Reading data file ...
  orthogonal box = (0 0 0) to (15.750804 27.281192 25.720954)
  1 by 1 by 1 MPI processor grid
  reading atoms ...
  432 atoms
  read_data CPU = 0.016 seconds
=== STAGE 1: Energy Minimization ===
Switching to 'neigh_modify every 1 delay 0 check yes' setting during minimization
No /omp style for force computation currently active
Neighbor list info ...
  update: every = 1 steps, delay = 0 steps, check = yes
  max neighbors/atom: 4000, page size: 100000
  master list distance cutoff = 8
  ghost atom cutoff = 8
  binsize = 4, bins = 4 7 7
  2 neighbor lists, perpetual/occasional/extra = 2 0 0
  (1) pair meam, perpetual
      attributes: full, newton on, omp
      pair build: full/bin/atomonly/omp
      stencil: full/bin/3d
      bin: standard
  (2) pair meam, perpetual, half/full from (1)
      attributes: half, newton on, omp
      pair build: halffull/newton/omp
      stencil: none
      bin: none
Setting up cg style minimization ...
  Unit style    : metal
  Current step  : 0
Per MPI rank memory allocation (min/avg/max) = 19.38 | 19.38 | 19.38 Mbytes
   Step          Temp          PotEng         KinEng         TotEng         Press          Volume           Lx             Ly             Lz      
         0   0             -1091.0252      0             -1091.0252     -140904.24      11052.312      15.750804      27.281192      25.720954    
        95   0             -1432.9922      0             -1432.9922     -59275.967      11052.312      15.750804      27.281192      25.720954    
Loop time of 0.774618 on 8 procs for 95 steps with 432 atoms

94.8% CPU use with 1 MPI tasks x 8 OpenMP threads

Minimization stats:
  Stopping criterion = energy tolerance
  Energy initial, next-to-last, final = 
     -1091.02518468556  -1432.99076923064  -1432.99220173935
  Force two-norm initial, final = 6.2281798 15.318753
  Force max component initial, final = 0.87140266 5.1639993
  Final line search alpha, max atom move = 0.021720082 0.11216249
  Iterations, force evaluations = 95 224

MPI task timing breakdown:
Section |  min time  |  avg time  |  max time  |%varavg| %total
---------------------------------------------------------------
Pair    | 0.72213    | 0.72213    | 0.72213    |   0.0 | 93.22
Neigh   | 0.00266    | 0.00266    | 0.00266    |   0.0 |  0.34
Comm    | 0.001395   | 0.001395   | 0.001395   |   0.0 |  0.18
Output  | 0          | 0          | 0          |   0.0 |  0.00
Modify  | 0.045411   | 0.045411   | 0.045411   |   0.0 |  5.86
Other   |            | 0.003025   |            |       |  0.39

Nlocal:            432 ave         432 max         432 min
Histogram: 1 0 0 0 0 0 0 0 0 0
Nghost:           1869 ave        1869 max        1869 min
Histogram: 1 0 0 0 0 0 0 0 0 0
Neighs:          17516 ave       17516 max       17516 min
Histogram: 1 0 0 0 0 0 0 0 0 0
FullNghs:        35032 ave       35032 max       35032 min
Histogram: 1 0 0 0 0 0 0 0 0 0

Total # of neighbors = 35032
Ave neighs/atom = 81.092593
Neighbor list builds = 4
Dangerous builds = 0
Minimized PE/atom: -3.31711157810034 eV/atom
=== STAGE 2: NPT Equilibration at 400 K ===
No /omp style for force computation currently active
Setting up Verlet run ...
  Unit style    : metal
  Current step  : 0
  Time step     : 0.002
Per MPI rank memory allocation (min/avg/max) = 18.26 | 18.26 | 18.26 Mbytes
   Step          Temp          PotEng         KinEng         TotEng         Press          Volume           Lx             Ly             Lz      
         0   400           -1432.9922      22.284449     -1410.7078     -57122.353      11052.312      15.750804      27.281192      25.720954    
       500   1120.8082     -1775.1729      62.441484     -1712.7314     -19760.389      5555.1183      12.523223      21.690858      20.450337    
      1000   441.40437     -1908.6223      24.591133     -1884.0312      2792.1842      4885.522       11.998363      20.781774      19.593244    
      1500   418.65858     -1921.3967      23.323939     -1898.0727     -3157.9656      4861.3692      11.978558      20.747471      19.560903    
      2000   344.90765     -1927.4986      19.215192     -1908.2834      1911.057       4827.5286      11.950698      20.699217      19.515409    
      2500   383.98706     -1931.2767      21.39235      -1909.8844     -2231.9957      4820.6942      11.945056      20.689444      19.506195    
      3000   437.5489      -1930.9813      24.37634      -1906.6049      3873.0729      4811.2615      11.93726       20.675941      19.493464    
      3500   394.91148     -1931.9056      22.000962     -1909.9046      184.85693      4815.8197      11.941029      20.682468      19.499618    
      4000   378.28619     -1934.1844      21.074748     -1913.1097     -705.27421      4804.3799      11.931566      20.666079      19.484166    
      4500   376.0022      -1933.9641      20.947504     -1913.0166      1223.8686      4803.9933      11.931246      20.665524      19.483643    
      5000   397.57413     -1934.0041      22.149301     -1911.8548     -2117.0177      4816.9886      11.941995      20.684142      19.501196    
      5500   414.41607     -1933.0398      23.087584     -1909.9522      1981.5716      4803.6131      11.930931      20.664979      19.483129    
      6000   386.03131     -1933.3938      21.506238     -1911.8876     -1451.8385      4816.1031      11.941263      20.682874      19.500001    
      6500   398.3388      -1936.2799      22.191902     -1914.088       3281.0051      4794.7766      11.923611      20.6523        19.471175    
      7000   381.96281     -1933.5978      21.279577     -1912.3182      506.68224      4806.2703      11.933131      20.668789      19.486721    
      7500   394.90794     -1932.8991      22.000765     -1910.8983     -575.54048      4807.6829      11.9343        20.670813      19.48863     
      8000   424.10483     -1934.6829      23.627356     -1911.0555     -2018.0416      4817.2267      11.942192      20.684482      19.501517    
      8500   381.34293     -1937.4866      21.245043     -1916.2416      1448.8949      4793.2392      11.922336      20.650092      19.469094    
      9000   392.27754     -1938.834       21.854222     -1916.9797     -6085.5499      4807.5355      11.934178      20.670602      19.488431    
      9500   437.13459     -1940.2962      24.353259     -1915.9429      1096.6312      4784.2799      11.914903      20.637218      19.456956    
     10000   405.68555     -1937.4459      22.601197     -1914.8447     -3275.4271      4804.4222      11.931601      20.666139      19.484223    
     10500   384.70338     -1937.2729      21.432257     -1915.8406     -3217.6823      4814.0667      11.93958       20.679959      19.497252    
     11000   400.11124     -1939.9162      22.290646     -1917.6255      6782.094       4766.3224      11.899977      20.611366      19.432582    
     11500   383.07816     -1939.3321      21.341715     -1917.9904     -2197.6296      4787.1525      11.917288      20.641348      19.460849    
     12000   406.69101     -1940.5763      22.657213     -1917.9191     -3561.8528      4793.3304      11.922412      20.650223      19.469217    
     12500   404.37606     -1939.3538      22.528244     -1916.8256      7613.5902      4764.243       11.898247      20.608368      19.429756    
     13000   370.07811     -1941.7368      20.617467     -1921.1193     -4722.4035      4780.9185      11.912112      20.632384      19.452398    
     13500   402.10796     -1944.1308      22.401886     -1921.7289      6131.0913      4752.9784      11.888862      20.592113      19.41443     
     14000   370.67963     -1943.2896      20.650978     -1922.6387     -4970.1442      4777.5024      11.909275      20.627469      19.447764    
     14500   379.10358     -1944.1705      21.120286     -1923.0502      1533.6371      4758.9031      11.8938        20.600665      19.422494    
     15000   392.49561     -1942.8859      21.866371     -1921.0195     -6887.1004      4781.0644      11.912234      20.632594      19.452596    
     15500   402.59338     -1944.3031      22.428929     -1921.8741      793.83475      4762.3631      11.896682      20.605657      19.4272      
     16000   366.57053     -1943.0946      20.422056     -1922.6725      2645.0662      4765.5945      11.899372      20.610316      19.431593    
     16500   388.26994     -1945.5253      21.630954     -1923.8944     -111.55087      4769.9122      11.902964      20.616539      19.437459    
     17000   414.58844     -1945.1134      23.097188     -1922.0162      1583.5069      4767.1645      11.900678      20.612579      19.433726    
     17500   413.42824     -1944.3102      23.032551     -1921.2777     -6001.6589      4778.7242      11.91029       20.629227      19.449422    
     18000   413.36279     -1943.259       23.028905     -1920.2301     -208.9849       4782.3479      11.913299      20.63444       19.454337    
     18500   414.49108     -1944.9667      23.091763     -1921.8749      8036.1352      4746.0824      11.883109      20.582149      19.405036    
     19000   383.78385     -1944.2395      21.381029     -1922.8584     -4655.7393      4790.5163      11.920078      20.646181      19.465406    
     19500   410.56059     -1944.2939      22.872791     -1921.4211      11673.946      4746.5742      11.88352       20.58286       19.405707    
     20000   411.65125     -1943.9171      22.933553     -1920.9836     -3233.0806      4777.6622      11.909407      20.627699      19.447981    
Loop time of 188.191 on 8 procs for 20000 steps with 432 atoms

Performance: 18.364 ns/day, 1.307 hours/ns, 106.275 timesteps/s, 45.911 katom-step/s
91.4% CPU use with 1 MPI tasks x 8 OpenMP threads

MPI task timing breakdown:
Section |  min time  |  avg time  |  max time  |%varavg| %total
---------------------------------------------------------------
Pair    | 166.67     | 166.67     | 166.67     |   0.0 | 88.56
Neigh   | 0.023917   | 0.023917   | 0.023917   |   0.0 |  0.01
Comm    | 0.15925    | 0.15925    | 0.15925    |   0.0 |  0.08
Output  | 0.002497   | 0.002497   | 0.002497   |   0.0 |  0.00
Modify  | 21.306     | 21.306     | 21.306     |   0.0 | 11.32
Other   |            | 0.03144    |            |       |  0.02

Nlocal:            432 ave         432 max         432 min
Histogram: 1 0 0 0 0 0 0 0 0 0
Nghost:           2841 ave        2841 max        2841 min
Histogram: 1 0 0 0 0 0 0 0 0 0
Neighs:          41594 ave       41594 max       41594 min
Histogram: 1 0 0 0 0 0 0 0 0 0
FullNghs:        83188 ave       83188 max       83188 min
Histogram: 1 0 0 0 0 0 0 0 0 0

Total # of neighbors = 83188
Ave neighs/atom = 192.56481
Neighbor list builds = 26
Dangerous builds = 0
=== STAGE 3: NPT Production at 400 K ===
No /omp style for force computation currently active
Setting up Verlet run ...
  Unit style    : metal
  Current step  : 0
  Time step     : 0.001
Per MPI rank memory allocation (min/avg/max) = 19 | 19 | 19 Mbytes
   Step          Temp          PotEng         KinEng         TotEng         Press          Volume           Lx             Ly             Lz      
         0   411.65125     -1943.9171      22.933553     -1920.9836     -3233.0806      4777.6622      11.909407      20.627699      19.447981    
       500   417.71261     -1944.5946      23.271238     -1921.3233     -809.12147      4773.31        11.90579       20.621433      19.442074    
      1000   394.30397     -1945.8612      21.967117     -1923.8941      2653.5104      4755.7931      11.891208      20.596177      19.418262    
      1500   379.52738     -1944.5025      21.143896     -1923.3586     -6268.4635      4786.1793      11.91648       20.639949      19.45953     
      2000   402.07383     -1943.8616      22.399984     -1921.4616      5542.7345      4761.8176      11.896227      20.60487       19.426458    
      2500   396.64745     -1944.7846      22.097675     -1922.6869     -7390.2998      4789.2579      11.919034      20.644373      19.463702    
      3000   399.5625      -1944.1332      22.260075     -1921.8731      2774.4397      4763.5735      11.897689      20.607402      19.428845    
      3500   422.60723     -1942.4114      23.543923     -1918.8675      1865.4933      4777.7926      11.909516      20.627886      19.448158    
      4000   375.96415     -1943.3857      20.945385     -1922.4403      698.60299      4773.2647      11.905752      20.621368      19.442012    
      4500   386.42401     -1944.3773      21.528115     -1922.8491      6167.317       4755.8225      11.891233      20.596219      19.418302    
      5000   413.45949     -1945.7562      23.034292     -1922.7219      5151.4753      4754.2334      11.889908      20.593925      19.416139    
      5500   386.51384     -1942.602       21.53312      -1921.0689     -838.97928      4771.5459      11.904323      20.618892      19.439678    
      6000   392.05616     -1944.7132      21.841889     -1922.8713      5.4145054      4770.5408      11.903487      20.617444      19.438313    
      6500   375.7769      -1943.4333      20.934953     -1922.4983      1533.3951      4767.8922      11.901284      20.613628      19.434715    
      7000   404.41469     -1943.4868      22.530396     -1920.9564      1630.9619      4763.8717      11.897938      20.607832      19.429251    
      7500   411.11809     -1943.6158      22.903851     -1920.7119      1512.5747      4762.1379      11.896494      20.605332      19.426893    
      8000   382.30751     -1943.5827      21.29878      -1922.2839      14.600386      4765.5365      11.899323      20.610233      19.431514    
      8500   378.82951     -1944.6617      21.105017     -1923.5567     -1343.0692      4757.59        11.892706      20.598771      19.420707    
      9000   397.22729     -1944.0527      22.129978     -1921.9227     -3600.6453      4767.3993      11.900874      20.612918      19.434045    
      9500   396.56633     -1943.6843      22.093156     -1921.5911     -1648.2477      4773.9802      11.906347      20.622398      19.442983    
     10000   419.19614     -1945.4388      23.353887     -1922.0849      1574.483       4758.2307      11.89324       20.599695      19.421579    
     10500   377.2761      -1945.6705      21.018475     -1924.6521      2139.8185      4756.1159      11.891477      20.596643      19.418701    
     11000   389.11369     -1943.8188      21.67796      -1922.1409      4288.5006      4751.0957      11.887292      20.589394      19.411866    
     11500   385.13504     -1943.3785      21.456305     -1921.9222     -5097.4075      4778.9238      11.910455      20.629514      19.449692    
     12000   409.78778     -1945.3844      22.829737     -1922.5546      3817.8048      4750.0094      11.886386      20.587824      19.410387    
     12500   428.12984     -1941.3842      23.851594     -1917.5327     -6035.6472      4790.7277      11.920254      20.646485      19.465693    
     13000   384.2516      -1944.3285      21.407088     -1922.9215      2778.9973      4760.8074      11.895386      20.603413      19.425084    
     13500   388.51848     -1944.4837      21.644801     -1922.8389      410.4274       4755.3322      11.890824      20.595512      19.417634    
     14000   404.49424     -1944.0205      22.534828     -1921.4857     -3518.2573      4782.0979      11.913092      20.63408       19.453998    
     14500   419.0814      -1944.2859      23.347495     -1920.9384      10770.902      4738.6021      11.876863      20.57133       19.394836    
     15000   378.90337     -1945.1954      21.109132     -1924.0863     -4850.1121      4771.7402      11.904485      20.619172      19.439942    
     15500   393.78455     -1945.7607      21.938179     -1923.8225      1630.8336      4753.002       11.888882      20.592147      19.414462    
     16000   395.89394     -1944.1745      22.055696     -1922.1188     -749.05934      4766.9487      11.900499      20.612268      19.433433    
     16500   405.7691      -1943.5226      22.605852     -1920.9167     -5799.2438      4778.1572      11.909819      20.628411      19.448652    
     17000   418.70069     -1943.8586      23.326286     -1920.5323      1073.0569      4768.5804      11.901856      20.61462       19.43565     
     17500   396.17878     -1942.7515      22.071565     -1920.6799      3416.0371      4757.349       11.892505      20.598423      19.420379    
     18000   419.14448     -1945.7818      23.351009     -1922.4308     -7848.9343      4778.7283      11.910293      20.629233      19.449427    
     18500   380.84914     -1944.0303      21.217533     -1922.8127     -5080.2528      4784.6268      11.915191      20.637717      19.457426    
     19000   428.31638     -1944.4229      23.861986     -1920.5609      11762.404      4730.0288      11.869696      20.558917      19.383132    
     19500   414.28291     -1943.3345      23.080166     -1920.2543      2961.3879      4764.2209      11.898228      20.608336      19.429726    
     20000   378.76737     -1943.1783      21.101555     -1922.0768      1589.4101      4764.1338      11.898156      20.60821       19.429607    
     20500   396.11666     -1945.5008      22.068104     -1923.4327     -6596.8462      4778.0973      11.909769      20.628325      19.448571    
     21000   400.56269     -1944.7134      22.315797     -1922.3976      3418.2578      4746.5063      11.883463      20.582762      19.405614    
     21500   412.37132     -1943.5262      22.973669     -1920.5526      1019.5692      4758.3055      11.893302      20.599803      19.421681    
     22000   396.87088     -1944.4516      22.110122     -1922.3415     -4713.9738      4772.9661      11.905504      20.620938      19.441607    
     22500   411.93995     -1943.9975      22.949637     -1921.0479      6290.4083      4745.1602      11.88234       20.580816      19.403779    
     23000   431.84271     -1944.044       24.058442     -1919.9856      110.60935      4767.9396      11.901323      20.613697      19.434779    
     23500   412.28739     -1943.7878      22.968994     -1920.8188      3869.3227      4750.8256      11.887067      20.589003      19.411499    
     24000   375.33808     -1942.7727      20.910506     -1921.8622     -4756.2591      4777.104       11.908944      20.626895      19.447223    
     24500   369.82984     -1945.5316      20.603636     -1924.928       11584.508      4730.2824      11.869908      20.559284      19.383479    
     25000   395.39273     -1944.2551      22.027773     -1922.2273     -4265.354       4768.3346      11.901652      20.614266      19.435316    
     25500   419.53171     -1944.7248      23.372582     -1921.3522     -59.600036      4762.4247      11.896733      20.605746      19.427283    
     26000   399.44242     -1944.1264      22.253386     -1921.873       1321.4582      4762.1429      11.896498      20.605339      19.4269      
     26500   366.0474      -1944.2464      20.392911     -1923.8535     -8979.395       4786.3611      11.916631      20.64021       19.459777    
     27000   392.05398     -1944.9703      21.841767     -1923.1286      3952.4001      4755.0358      11.890577      20.595084      19.417231    
     27500   411.97384     -1944.5797      22.951525     -1921.6282      2176.5558      4751.7559      11.887843      20.590347      19.412766    
     28000   389.43681     -1944.0845      21.695962     -1922.3886     -4136.6088      4775.0576      11.907243      20.623949      19.444446    
     28500   387.38597     -1945.1654      21.581707     -1923.5837     -719.12261      4763.092       11.897288      20.606708      19.428191    
     29000   404.59293     -1944.5901      22.540326     -1922.0497     -2237.9705      4769.4078      11.902545      20.615812      19.436774    
     29500   403.19417     -1943.8683      22.4624       -1921.4059     -2567.6886      4770.8701      11.903761      20.617919      19.43876     
     30000   392.50244     -1945.0279      21.866751     -1923.1611      1220.5247      4756.7948      11.892043      20.597623      19.419625    
     30500   400.00414     -1944.4533      22.28468      -1922.1686     -2376.0221      4774.035       11.906393      20.622477      19.443058    
     31000   395.40398     -1944.9531      22.0284       -1922.9247      1397.0475      4760.8472      11.895419      20.60347       19.425138    
     31500   386.65985     -1945.1036      21.541254     -1923.5624     -462.53745      4763.5897      11.897703      20.607426      19.428867    
     32000   379.35857     -1946.1387      21.134492     -1925.0042     -1236.868       4759.6661      11.894435      20.601766      19.423532    
     32500   430.24343     -1944.851       23.969344     -1920.8817     -7767.1772      4780.0733      11.91141       20.631168      19.451252    
     33000   417.24348     -1944.0943      23.245103     -1920.8492     -2308.3153      4768.0888      11.901447      20.613912      19.434982    
     33500   417.38508     -1943.4115      23.252991     -1920.1585      1567.3482      4767.9442      11.901327      20.613703      19.434786    
     34000   397.90585     -1944.1413      22.167781     -1921.9736      2635.3734      4759.4241      11.894234      20.601417      19.423202    
     34500   392.10077     -1944.0027      21.844374     -1922.1583      4164.409       4753.7965      11.889544      20.593294      19.415544    
     35000   414.37875     -1944.0988      23.085506     -1921.0133     -7158.4955      4788.2962      11.918237      20.642991      19.462399    
     35500   401.41111     -1944.9251      22.363063     -1922.562       4694.4045      4752.3346      11.888325      20.591183      19.413554    
     36000   384.58208     -1945.7733      21.4255       -1924.3478      4351.187       4743.287       11.880776      20.578107      19.401226    
     36500   393.41945     -1944.3178      21.917839     -1922.3999     -639.75667      4773.1868      11.905687      20.621256      19.441906    
     37000   393.44801     -1943.3935      21.91943      -1921.4741      192.28038      4773.1656      11.90567       20.621225      19.441878    
     37500   414.17062     -1944.3785      23.07391      -1921.3046     -4429.9513      4784.211       11.914846      20.637119      19.456862    
     38000   397.80907     -1945.4129      22.16239      -1923.2505      1950.4813      4753.2656      11.889101      20.592528      19.414821    
     38500   392.25757     -1943.9905      21.853109     -1922.1374      3779.304       4762.7426      11.896998      20.606204      19.427716    
     39000   409.54548     -1942.9361      22.816238     -1920.1198     -6666.0305      4783.6092      11.914347      20.636254      19.456047    
     39500   428.17814     -1944.6216      23.854285     -1920.7673      3859.9703      4754.8514      11.890423      20.594817      19.41698     
     40000   408.86942     -1944.9183      22.778574     -1922.1398     -1391.7387      4763.4827      11.897614      20.607272      19.428722    
     40500   391.39295     -1944.8326      21.80494      -1923.0277      5799.0798      4747.9868      11.884699      20.584902      19.407631    
     41000   397.37759     -1943.9421      22.138352     -1921.8037     -9963.3579      4800.475       11.928333      20.660478      19.478886    
     41500   397.22579     -1943.9887      22.129894     -1921.8588      13681.686      4728.6094      11.868509      20.55686       19.381193    
     42000   398.89147     -1946.1227      22.222692     -1923.9        -16518.509      4797.0176      11.925468      20.655517      19.474208    
     42500   390.53725     -1944.5051      21.757269     -1922.7479      4876.4844      4753.8937      11.889625      20.593435      19.415676    
     43000   399.94362     -1943.7993      22.281308     -1921.518      -332.76262      4769.7625      11.90284       20.616323      19.437256    
     43500   404.51129     -1943.7622      22.535778     -1921.2265     -2268.1654      4765.7654      11.899514      20.610563      19.431825    
     44000   392.99841     -1943.9119      21.894383     -1922.0176     -5649.923       4781.7886      11.912835      20.633635      19.453578    
     44500   396.28879     -1945.1981      22.077693     -1923.1204      1920.2453      4760.8732      11.895441      20.603508      19.425174    
     45000   409.88078     -1945.6483      22.834919     -1922.8133     -7006.105       4779.3317      11.910794      20.630101      19.450246    
     45500   412.75993     -1944.9998      22.995319     -1922.0045      6070.5211      4745.6172      11.882721      20.581477      19.404402    
     46000   415.49791     -1943.925       23.147855     -1920.7772     -4734.6395      4777.2869      11.909095      20.627158      19.447472    
     46500   394.94285     -1944.4139      22.002709     -1922.4112      4379.8206      4750.5109      11.886804      20.588549      19.41107     
     47000   393.19038     -1943.9579      21.905078     -1922.0528     -2444.368       4766.1992      11.899875      20.611188      19.432414    
     47500   424.86937     -1943.4476      23.669949     -1919.7777      4175.9159      4762.5494      11.896837      20.605926      19.427453    
     48000   424.84129     -1943.4656      23.668385     -1919.7973      2333.2082      4763.8738      11.897939      20.607835      19.429254    
     48500   421.01781     -1944.4612      23.455375     -1921.0058     -645.39762      4762.7177      11.896977      20.606168      19.427682    
     49000   382.84412     -1943.8984      21.328676     -1922.5697     -1108.9869      4767.8337      11.901235      20.613544      19.434636    
     49500   414.55564     -1944.0634      23.09536      -1920.9681     -7539.7938      4782.8539      11.91372       20.635168      19.455023    
     50000   394.2821      -1942.6917      21.965898     -1920.7258      5708.5795      4752.6214      11.888564      20.591597      19.413944    
Loop time of 483.659 on 8 procs for 50000 steps with 432 atoms

Performance: 8.932 ns/day, 2.687 hours/ns, 103.379 timesteps/s, 44.660 katom-step/s
91.2% CPU use with 1 MPI tasks x 8 OpenMP threads

MPI task timing breakdown:
Section |  min time  |  avg time  |  max time  |%varavg| %total
---------------------------------------------------------------
Pair    | 428.33     | 428.33     | 428.33     |   0.0 | 88.56
Neigh   | 0          | 0          | 0          |   0.0 |  0.00
Comm    | 0.40365    | 0.40365    | 0.40365    |   0.0 |  0.08
Output  | 0.006224   | 0.006224   | 0.006224   |   0.0 |  0.00
Modify  | 54.842     | 54.842     | 54.842     |   0.0 | 11.34
Other   |            | 0.07469    |            |       |  0.02

Nlocal:            432 ave         432 max         432 min
Histogram: 1 0 0 0 0 0 0 0 0 0
Nghost:           2859 ave        2859 max        2859 min
Histogram: 1 0 0 0 0 0 0 0 0 0
Neighs:          41236 ave       41236 max       41236 min
Histogram: 1 0 0 0 0 0 0 0 0 0
FullNghs:        82472 ave       82472 max       82472 min
Histogram: 1 0 0 0 0 0 0 0 0 0

Total # of neighbors = 82472
Ave neighs/atom = 190.90741
Neighbor list builds = 0
Dangerous builds = 0

=== FINAL RESULTS: HCP at 400 K ===
Atoms: 432 | PE/atom: -4.50026550695878 eV/atom
WARNING: Detected non-ASCII characters in input. Will try to continue by replacing with ASCII equivalents where known. (src/input.cpp:479)
Volume: 4752.62139307565 …³ | Area: 244.804526686428 ²
==========================================
HCP 400 432 -4.50026550695878 4752.62139307565 11.8885642267764 20.5915972708512 19.4139440859413 244.804526686428
Simulation complete!
Total wall time: 0:11:12
