LAMMPS (10 Sep 2025)
  using 8 OpenMP thread(s) per MPI task
Loaded 1 plugins from C:\Users\harsh\Downloads\LAMMPS 64-bit 10Sep2025\plugins
using multi-threaded neighbor list subroutines
Reading data file ...
  orthogonal box = (0 0 0) to (22.275 22.275 22.275)
  1 by 1 by 1 MPI processor grid
  reading atoms ...
  864 atoms
  read_data CPU = 0.003 seconds
=== STAGE 1: Energy Minimization ===
Switching to 'neigh_modify every 1 delay 0 check yes' setting during minimization
No /omp style for force computation currently active
Neighbor list info ...
  update: every = 1 steps, delay = 0 steps, check = yes
  max neighbors/atom: 4000, page size: 100000
  master list distance cutoff = 8
  ghost atom cutoff = 8
  binsize = 4, bins = 6 6 6
  2 neighbor lists, perpetual/occasional/extra = 2 0 0
  (1) pair meam, perpetual
      attributes: full, newton on, omp
      pair build: full/bin/atomonly/omp
      stencil: full/bin/3d
      bin: standard
  (2) pair meam, perpetual, half/full from (1)
      attributes: half, newton on, omp
      pair build: halffull/newton/omp
      stencil: none
      bin: none
Setting up cg style minimization ...
  Unit style    : metal
  Current step  : 0
Per MPI rank memory allocation (min/avg/max) = 21.26 | 21.26 | 21.26 Mbytes
   Step          Temp          PotEng         KinEng         TotEng         Press          Volume           Lx             Ly             Lz      
         0   0             -3765.997       0             -3765.997      -175777.61      11052.312      22.275         22.275         22.275       
        15   0             -3808.6676      0             -3808.6676     -185069.79      11052.312      22.275         22.275         22.275       
Loop time of 0.479713 on 8 procs for 15 steps with 864 atoms

91.2% CPU use with 1 MPI tasks x 8 OpenMP threads

Minimization stats:
  Stopping criterion = energy tolerance
  Energy initial, next-to-last, final = 
     -3765.99696357493  -3808.66535185787   -3808.6675503609
  Force two-norm initial, final = 22.637254 0.12500998
  Force max component initial, final = 2.6363818 0.03145486
  Final line search alpha, max atom move = 1 0.03145486
  Iterations, force evaluations = 15 28

MPI task timing breakdown:
Section |  min time  |  avg time  |  max time  |%varavg| %total
---------------------------------------------------------------
Pair    | 0.4738     | 0.4738     | 0.4738     |   0.0 | 98.77
Neigh   | 0          | 0          | 0          |   0.0 |  0.00
Comm    | 0.000425   | 0.000425   | 0.000425   |   0.0 |  0.09
Output  | 0          | 0          | 0          |   0.0 |  0.00
Modify  | 0.005004   | 0.005004   | 0.005004   |   0.0 |  1.04
Other   |            | 0.000485   |            |       |  0.10

Nlocal:            864 ave         864 max         864 min
Histogram: 1 0 0 0 0 0 0 0 0 0
Nghost:           3767 ave        3767 max        3767 min
Histogram: 1 0 0 0 0 0 0 0 0 0
Neighs:          76032 ave       76032 max       76032 min
Histogram: 1 0 0 0 0 0 0 0 0 0
FullNghs:       152064 ave      152064 max      152064 min
Histogram: 1 0 0 0 0 0 0 0 0 0

Total # of neighbors = 152064
Ave neighs/atom = 176
Neighbor list builds = 0
Dangerous builds = 0
Minimized PE/atom: -4.40818003513993 eV/atom
=== STAGE 2: NPT Equilibration at 400 K ===
No /omp style for force computation currently active
Setting up Verlet run ...
  Unit style    : metal
  Current step  : 0
  Time step     : 0.002
Per MPI rank memory allocation (min/avg/max) = 20.14 | 20.14 | 20.14 Mbytes
   Step          Temp          PotEng         KinEng         TotEng         Press          Volume           Lx             Ly             Lz      
         0   400           -3808.6676      44.620602     -3764.0469     -180757.57      11052.312      22.275         22.275         22.275       
       500   399.32763     -3876.5652      44.545599     -3832.0196     -299.63194      9476.4785      21.161624      21.161624      21.161624    
      1000   402.95189     -3881.3607      44.94989      -3836.4108      659.69703      9471.4434      21.157875      21.157875      21.157875    
      1500   392.99903     -3879.9406      43.839633     -3836.101      -2028.2141      9481.4943      21.165357      21.165357      21.165357    
      2000   396.84659     -3877.8361      44.268834     -3833.5673      1156.6532      9467.9275      21.155257      21.155257      21.155257    
      2500   407.62674     -3877.8535      45.471376     -3832.3821      1039.6817      9470.8018      21.157398      21.157398      21.157398    
      3000   392.11565     -3877.6471      43.741091     -3833.906       607.3813       9473.4179      21.159346      21.159346      21.159346    
      3500   391.87442     -3879.163       43.714181     -3835.4488      2028.0628      9463.8512      21.152221      21.152221      21.152221    
      4000   404.63898     -3878.8899      45.138087     -3833.7518     -3649.4574      9487.5326      21.169849      21.169849      21.169849    
      4500   409.01327     -3878.0353      45.626046     -3832.4092     -304.57638      9461.1941      21.150241      21.150241      21.150241    
      5000   395.80802     -3878.6713      44.152981     -3834.5183      2168.8834      9459.0718      21.148659      21.148659      21.148659    
      5500   387.56336     -3879.6282      43.233276     -3836.3949      1196.4582      9459.6331      21.149078      21.149078      21.149078    
      6000   399.47181     -3879.4832      44.561682     -3834.9215      1053.7902      9457.9273      21.147806      21.147806      21.147806    
      6500   419.21531     -3879.1254      46.764099     -3832.3613     -3099.5629      9501.5376      21.180261      21.180261      21.180261    
      7000   381.46593     -3877.0478      42.553099     -3834.4947      1860.3154      9466.5124      21.154203      21.154203      21.154203    
      7500   380.60461     -3879.6736      42.457017     -3837.2166     -1690.2132      9474.7587      21.160344      21.160344      21.160344    
      8000   376.42791     -3878.4304      41.9911       -3836.4393      1442.5216      9465.3421      21.153331      21.153331      21.153331    
      8500   417.00026     -3879.6826      46.517007     -3833.1655      1462.4086      9473.183       21.159171      21.159171      21.159171    
      9000   379.04868     -3875.082       42.283451     -3832.7986     -3107.3895      9492.7202      21.173707      21.173707      21.173707    
      9500   377.3646      -3880.1318      42.095589     -3838.0362      5161.1327      9433.7501      21.129771      21.129771      21.129771    
     10000   398.35703     -3879.2251      44.437326     -3834.7877     -3594.5093      9501.0187      21.179875      21.179875      21.179875    
     10500   396.04348     -3877.9844      44.179247     -3833.8052      2032.4538      9465.2977      21.153298      21.153298      21.153298    
     11000   409.83224     -3877.9191      45.717404     -3832.2017      2023.5229      9460.9677      21.150072      21.150072      21.150072    
     11500   397.89832     -3878.2815      44.386156     -3833.8953     -1598.6528      9473.2434      21.159216      21.159216      21.159216    
     12000   385.2552      -3878.3089      42.975798     -3835.3331      325.13517      9464.8324      21.152952      21.152952      21.152952    
     12500   387.89399     -3877.6687      43.270159     -3834.3986      1239.8485      9469.0821      21.156117      21.156117      21.156117    
     13000   408.00146     -3879.1039      45.513177     -3833.5907      1595.5314      9460.2159      21.149512      21.149512      21.149512    
     13500   398.82007     -3879.6679      44.488979     -3835.1789     -797.06332      9477.2817      21.162222      21.162222      21.162222    
     14000   383.4455      -3878.5341      42.773922     -3835.7601     -2796.267       9488.3356      21.170446      21.170446      21.170446    
     14500   395.52019     -3879.3481      44.120872     -3835.2272      6298.9007      9440.9685      21.135159      21.135159      21.135159    
     15000   416.53263     -3879.7127      46.464842     -3833.2479     -5086.582       9499.0203      21.17839       21.17839       21.17839     
     15500   387.18399     -3877.9326      43.190957     -3834.7416      974.20687      9467.4673      21.154914      21.154914      21.154914    
     16000   403.91537     -3881.3448      45.057368     -3836.2874     -594.45164      9468.4823      21.15567       21.15567       21.15567     
     16500   402.28836     -3878.1986      44.875873     -3833.3227     -2965.4172      9492.2311      21.173343      21.173343      21.173343    
     17000   415.52527     -3878.3347      46.352469     -3831.9822      1793.805       9466.8769      21.154475      21.154475      21.154475    
     17500   414.31657     -3877.4482      46.217637     -3831.2306     -3372.0919      9481.6274      21.165456      21.165456      21.165456    
     18000   408.32137     -3878.694       45.548863     -3833.1451      463.81361      9471.7001      21.158067      21.158067      21.158067    
     18500   401.114       -3879.5458      44.74487      -3834.8009     -1028.1997      9473.1868      21.159174      21.159174      21.159174    
     19000   409.93715     -3877.7947      45.729106     -3832.0656      909.41747      9470.2257      21.156969      21.156969      21.156969    
     19500   407.0474      -3878.7379      45.40675      -3833.3312     -1297.8285      9472.7096      21.158818      21.158818      21.158818    
     20000   377.70321     -3879.2027      42.133362     -3837.0694     -1602.2637      9472.5834      21.158724      21.158724      21.158724    
Loop time of 458.646 on 8 procs for 20000 steps with 864 atoms

Performance: 7.535 ns/day, 3.185 hours/ns, 43.607 timesteps/s, 37.676 katom-step/s
86.7% CPU use with 1 MPI tasks x 8 OpenMP threads

MPI task timing breakdown:
Section |  min time  |  avg time  |  max time  |%varavg| %total
---------------------------------------------------------------
Pair    | 435.65     | 435.65     | 435.65     |   0.0 | 94.99
Neigh   | 0.002037   | 0.002037   | 0.002037   |   0.0 |  0.00
Comm    | 0.28454    | 0.28454    | 0.28454    |   0.0 |  0.06
Output  | 0.003133   | 0.003133   | 0.003133   |   0.0 |  0.00
Modify  | 22.645     | 22.645     | 22.645     |   0.0 |  4.94
Other   |            | 0.06289    |            |       |  0.01

Nlocal:            864 ave         864 max         864 min
Histogram: 1 0 0 0 0 0 0 0 0 0
Nghost:           3767 ave        3767 max        3767 min
Histogram: 1 0 0 0 0 0 0 0 0 0
Neighs:          81669 ave       81669 max       81669 min
Histogram: 1 0 0 0 0 0 0 0 0 0
FullNghs:       163338 ave      163338 max      163338 min
Histogram: 1 0 0 0 0 0 0 0 0 0

Total # of neighbors = 163338
Ave neighs/atom = 189.04861
Neighbor list builds = 1
Dangerous builds = 0
=== STAGE 3: NPT Production at 400 K ===
No /omp style for force computation currently active
Setting up Verlet run ...
  Unit style    : metal
  Current step  : 0
  Time step     : 0.001
Per MPI rank memory allocation (min/avg/max) = 20.33 | 20.33 | 20.33 Mbytes
   Step          Temp          PotEng         KinEng         TotEng         Press          Volume           Lx             Ly             Lz      
         0   377.70321     -3879.2027      42.133362     -3837.0694     -1602.2637      9472.5834      21.158724      21.158724      21.158724    
       500   383.73541     -3877.852       42.806262     -3835.0458     -1080.4713      9477.5158      21.162396      21.162396      21.162396    
      1000   407.67947     -3878.7954      45.477258     -3833.3181     -1847.8798      9482.3023      21.165958      21.165958      21.165958    
      1500   401.93901     -3878.8352      44.836902     -3833.9983      5085.9317      9446.1242      21.139005      21.139005      21.139005    
      2000   403.17709     -3881.7185      44.975012     -3836.7435     -3491.856       9484.8542      21.167857      21.167857      21.167857    
      2500   386.38004     -3880.11        43.101275     -3837.0087     -481.00946      9469.4921      21.156422      21.156422      21.156422    
      3000   425.1629      -3880.1452      47.427561     -3832.7176     -1666.0743      9472.0479      21.158326      21.158326      21.158326    
      3500   405.65474     -3878.8547      45.251397     -3833.6033     -2559.826       9487.2578      21.169645      21.169645      21.169645    
      4000   402.92244     -3880.8825      44.946605     -3835.9359      340.5861       9454.0379      21.144907      21.144907      21.144907    
      4500   403.93834     -3881.7112      45.05993      -3836.6513     -676.99657      9467.6636      21.155061      21.155061      21.155061    
      5000   388.13657     -3880.7177      43.297219     -3837.4205      2027.5856      9457.0693      21.147167      21.147167      21.147167    
      5500   400.55703     -3878.448       44.68274      -3833.7652     -295.36248      9470.3008      21.157025      21.157025      21.157025    
      6000   399.58814     -3878.2491      44.574659     -3833.6744     -95.489656      9468.8313      21.15593       21.15593       21.15593     
      6500   380.76919     -3876.725       42.475376     -3834.2496      2488.5833      9456.3766      21.14665       21.14665       21.14665     
      7000   378.62026     -3880.1539      42.235659     -3837.9183     -5520.7225      9498.3133      21.177864      21.177864      21.177864    
      7500   370.01786     -3877.7243      41.276049     -3836.4483      4060.3775      9447.327       21.139903      21.139903      21.139903    
      8000   397.78321     -3879.906       44.373315     -3835.5327     -2718.8963      9484.251       21.167408      21.167408      21.167408    
      8500   385.72221     -3876.8462      43.027893     -3833.8183      1401.6958      9467.1224      21.154657      21.154657      21.154657    
      9000   377.4192      -3878.6742      42.10168      -3836.5725      3175.3433      9450.2761      21.142102      21.142102      21.142102    
      9500   393.21825     -3879.7198      43.864087     -3835.8558     -1693.1303      9471.4401      21.157873      21.157873      21.157873    
     10000   391.22901     -3878.355       43.642185     -3834.7128      2607.9622      9451.5043      21.143018      21.143018      21.143018    
     10500   405.95622     -3877.2874      45.285027     -3832.0023     -2956.6177      9488.4804      21.170554      21.170554      21.170554    
     11000   412.78319     -3877.1863      46.046586     -3831.1397      8525.8024      9437.4933      21.132565      21.132565      21.132565    
     11500   398.95502     -3878.566       44.504033     -3834.062      -5400.7244      9507.7669      21.184888      21.184888      21.184888    
     12000   396.55735     -3879.5128      44.23657      -3835.2763      4375.0788      9458.8232      21.148474      21.148474      21.148474    
     12500   411.02874     -3878.9578      45.850874     -3833.1069      681.38907      9475.673       21.161024      21.161024      21.161024    
     13000   410.42485     -3877.8085      45.78351      -3832.0249      1853.8401      9466.0695      21.153873      21.153873      21.153873    
     13500   389.00137     -3877.3141      43.393688     -3833.9204     -3362.2933      9495.1458      21.17551       21.17551       21.17551     
     14000   394.9507      -3880.1781      44.057345     -3836.1208      1234.619       9452.4537      21.143726      21.143726      21.143726    
     14500   390.66718     -3877.6072      43.579512     -3834.0276     -4532.4893      9496.3199      21.176383      21.176383      21.176383    
     15000   403.61455     -3876.8771      45.02381      -3831.8532      3417.0215      9456.2171      21.146532      21.146532      21.146532    
     15500   419.05376     -3877.0849      46.746077     -3830.3388      10.825533      9474.6192      21.16024       21.16024       21.16024     
     16000   397.71684     -3879.5398      44.365912     -3835.1739     -1846.7265      9473.7633      21.159603      21.159603      21.159603    
     16500   383.6224      -3878.5179      42.793656     -3835.7242      4383.0971      9445.0952      21.138238      21.138238      21.138238    
     17000   422.14928     -3877.7789      47.091388     -3830.6876     -5419.1425      9503.7671      21.181917      21.181917      21.181917    
     17500   419.0122      -3878.3948      46.741442     -3831.6534      4660.8496      9445.6175      21.138627      21.138627      21.138627    
     18000   397.34665     -3878.5848      44.324617     -3834.2602     -1056.1561      9477.8499      21.162645      21.162645      21.162645    
     18500   390.62441     -3879.7768      43.574741     -3836.202       165.8263       9467.7836      21.15515       21.15515       21.15515     
     19000   402.2042      -3876.958       44.866484     -3832.0915      1674.4229      9468.1112      21.155394      21.155394      21.155394    
     19500   410.00583     -3876.7303      45.736768     -3830.9935     -1096.3409      9480.3003      21.164468      21.164468      21.164468    
     20000   377.6081      -3876.2447      42.122752     -3834.1219     -2239.1387      9480.9719      21.164968      21.164968      21.164968    
     20500   389.93195     -3878.6642      43.497496     -3835.1667      1517.2996      9455.9123      21.146304      21.146304      21.146304    
     21000   391.41501     -3879.4568      43.662933     -3835.7939      197.9526       9462.6519      21.151327      21.151327      21.151327    
     21500   377.70136     -3878.7826      42.133155     -3836.6495      1136.2183      9468.9387      21.15601       21.15601       21.15601     
     22000   422.98468     -3880.9197      47.184578     -3833.7352     -528.95804      9473.6276      21.159502      21.159502      21.159502    
     22500   401.74553     -3877.8624      44.815319     -3833.0471     -588.33222      9477.5599      21.162429      21.162429      21.162429    
     23000   398.07274     -3879.2287      44.405613     -3834.8231      2796.8345      9456.5735      21.146797      21.146797      21.146797    
     23500   393.86018     -3881.1282      43.935696     -3837.1925     -2989.6574      9477.7273      21.162554      21.162554      21.162554    
     24000   390.48519     -3879.0693      43.55921      -3835.5101      3053.5385      9441.3859      21.13547       21.13547       21.13547     
     24500   395.15659     -3877.7319      44.080313     -3833.6516     -2305.0544      9484.3037      21.167447      21.167447      21.167447    
     25000   387.67055     -3878.3207      43.245234     -3835.0754      4205.4664      9443.4669      21.137023      21.137023      21.137023    
     25500   382.16403     -3879.7471      42.630973     -3837.1161     -4628.1632      9491.601       21.172875      21.172875      21.172875    
     26000   397.69093     -3879.7408      44.363022     -3835.3778      3721.7124      9448.7327      21.140951      21.140951      21.140951    
     26500   391.30215     -3876.7022      43.650343     -3833.0518     -1591.7074      9488.3577      21.170463      21.170463      21.170463    
     27000   399.21046     -3877.8268      44.532527     -3833.2943      3878.5586      9454.3673      21.145153      21.145153      21.145153    
     27500   388.19283     -3877.9183      43.303494     -3834.6148     -3810.6379      9498.9835      21.178362      21.178362      21.178362    
     28000   402.12695     -3878.7602      44.857867     -3833.9023      5304.6311      9453.1472      21.144243      21.144243      21.144243    
     28500   409.82603     -3878.167       45.716711     -3832.4503     -2244.764       9491.5946      21.17287       21.17287       21.17287     
     29000   400.10118     -3878.3687      44.631889     -3833.7368      2663.0217      9462.9049      21.151516      21.151516      21.151516    
     29500   401.05709     -3879.0546      44.738522     -3834.3161     -1783.5724      9488.2664      21.170395      21.170395      21.170395    
     30000   397.36388     -3879.9133      44.326538     -3835.5868      1263.2877      9469.2443      21.156238      21.156238      21.156238    
     30500   408.77016     -3877.7724      45.598927     -3832.1734     -3657.933       9492.0023      21.173173      21.173173      21.173173    
     31000   420.68704     -3877.8051      46.928272     -3830.8769     -1301.2976      9489.97        21.171662      21.171662      21.171662    
     31500   406.20741     -3878.3294      45.313048     -3833.0163      5241.7019      9453.1223      21.144224      21.144224      21.144224    
     32000   398.62077     -3879.5313      44.466747     -3835.0645     -8351.4406      9514.8714      21.190163      21.190163      21.190163    
     32500   395.81784     -3878.3362      44.154076     -3834.1821      7387.0356      9431.5872      21.128156      21.128156      21.128156    
     33000   420.20236     -3880.2377      46.874206     -3833.3635     -5002.8937      9492.0747      21.173227      21.173227      21.173227    
     33500   409.64976     -3879.0679      45.697047     -3833.3709      2492.0002      9455.2195      21.145788      21.145788      21.145788    
     34000   398.08908     -3879.3418      44.407436     -3834.9344     -883.34567      9473.056       21.159076      21.159076      21.159076    
     34500   394.65563     -3881.0281      44.024429     -3837.0037     -1154.2321      9481.3001      21.165212      21.165212      21.165212    
     35000   386.07668     -3879.4005      43.067435     -3836.3331      1089.696       9462.7719      21.151416      21.151416      21.151416    
     35500   397.32416     -3878.3221      44.322108     -3834          -261.92828      9476.8954      21.161934      21.161934      21.161934    
     36000   414.55671     -3879.5088      46.244425     -3833.2643      860.91436      9462.403       21.151142      21.151142      21.151142    
     36500   411.33681     -3877.4133      45.885241     -3831.5281     -4379.9147      9511.3535      21.187552      21.187552      21.187552    
     37000   403.12374     -3875.7143      44.96906      -3830.7452      8427.7075      9432.9179      21.12915       21.12915       21.12915     
     37500   374.20263     -3877.1881      41.742867     -3835.4452     -4301.4032      9501.1332      21.17996       21.17996       21.17996     
     38000   386.39212     -3878.8535      43.102622     -3835.7509     -463.13575      9483.4027      21.166777      21.166777      21.166777    
     38500   427.3677      -3878.72        47.67351      -3831.0465      1924.3454      9472.6331      21.158761      21.158761      21.158761    
     39000   407.96549     -3876.8676      45.509164     -3831.3585     -218.29761      9480.2406      21.164424      21.164424      21.164424    
     39500   392.43854     -3879.8299      43.777109     -3836.0528      468.41292      9471.7945      21.158137      21.158137      21.158137    
     40000   375.86636     -3876.7556      41.928459     -3834.8272     -1623.074       9481.4164      21.165299      21.165299      21.165299    
     40500   394.95453     -3876.8573      44.057773     -3832.7995      3138.025       9454.0942      21.144949      21.144949      21.144949    
     41000   395.75947     -3878.6833      44.147565     -3834.5357      696.78281      9472.4177      21.158601      21.158601      21.158601    
     41500   401.20064     -3879.8501      44.754536     -3835.0955     -1457.3326      9480.7367      21.164793      21.164793      21.164793    
     42000   397.52878     -3878.3094      44.344934     -3833.9645      803.47882      9473.6246      21.159499      21.159499      21.159499    
     42500   409.18237     -3877.4866      45.644909     -3831.8417     -2859.9489      9491.4825      21.172786      21.172786      21.172786    
     43000   419.87986     -3878.9762      46.838231     -3832.138       47.47128       9477.0911      21.16208       21.16208       21.16208     
     43500   391.18233     -3878.6002      43.636977     -3834.9632     -2458.8269      9470.0616      21.156846      21.156846      21.156846    
     44000   387.75045     -3879.4063      43.254147     -3836.1522      2557.4017      9457.4437      21.147446      21.147446      21.147446    
     44500   422.42055     -3880.5403      47.121648     -3833.4187     -3372.806       9500.0737      21.179173      21.179173      21.179173    
     45000   381.41917     -3878.59        42.547883     -3836.0422      3440.2295      9450.8927      21.142562      21.142562      21.142562    
     45500   380.08651     -3879.2852      42.399222     -3836.886      -3338.6165      9491.3102      21.172658      21.172658      21.172658    
     46000   393.17085     -3877.8239      43.8588       -3833.9651      4626.813       9448.1595      21.140524      21.140524      21.140524    
     46500   398.42545     -3878.1165      44.444958     -3833.6716     -2541.5116      9489.3902      21.171231      21.171231      21.171231    
     47000   396.24319     -3879.7562      44.201524     -3835.5546     -209.21852      9467.0243      21.154584      21.154584      21.154584    
     47500   397.83544     -3879.7273      44.379142     -3835.3482      188.05589      9471.5206      21.157933      21.157933      21.157933    
     48000   382.29897     -3876.9557      42.646026     -3834.3097     -1254.96        9484.0629      21.167268      21.167268      21.167268    
     48500   394.781       -3880.2807      44.038415     -3836.2423     -408.77507      9466.4721      21.154173      21.154173      21.154173    
     49000   402.68493     -3879.573       44.92011      -3834.6529     -287.8961       9470.907       21.157476      21.157476      21.157476    
     49500   404.4115      -3878.6033      45.112711     -3833.4906      2087.2013      9465.0182      21.15309       21.15309       21.15309     
     50000   396.9545      -3878.5783      44.280872     -3834.2974     -2800.3958      9492.7638      21.173739      21.173739      21.173739    
Loop time of 1123.77 on 8 procs for 50000 steps with 864 atoms

Performance: 3.844 ns/day, 6.243 hours/ns, 44.493 timesteps/s, 38.442 katom-step/s
90.4% CPU use with 1 MPI tasks x 8 OpenMP threads

MPI task timing breakdown:
Section |  min time  |  avg time  |  max time  |%varavg| %total
---------------------------------------------------------------
Pair    | 1075.2     | 1075.2     | 1075.2     |   0.0 | 95.68
Neigh   | 0          | 0          | 0          |   0.0 |  0.00
Comm    | 0.68186    | 0.68186    | 0.68186    |   0.0 |  0.06
Output  | 0.006543   | 0.006543   | 0.006543   |   0.0 |  0.00
Modify  | 47.686     | 47.686     | 47.686     |   0.0 |  4.24
Other   |            | 0.151      |            |       |  0.01

Nlocal:            864 ave         864 max         864 min
Histogram: 1 0 0 0 0 0 0 0 0 0
Nghost:           3767 ave        3767 max        3767 min
Histogram: 1 0 0 0 0 0 0 0 0 0
Neighs:          84506 ave       84506 max       84506 min
Histogram: 1 0 0 0 0 0 0 0 0 0
FullNghs:       169012 ave      169012 max      169012 min
Histogram: 1 0 0 0 0 0 0 0 0 0

Total # of neighbors = 169012
Ave neighs/atom = 195.61574
Neighbor list builds = 0
Dangerous builds = 0

=== FINAL RESULTS: FCC at 400 K ===
Atoms: 864 | PE/atom: -4.48943511673065 eV/atom
WARNING: Detected non-ASCII characters in input. Will try to continue by replacing with ASCII equivalents where known. (src/input.cpp:479)
Volume: 9492.76382148395 …³ | Area: 448.327229852176 ²
==========================================
FCC 400 864 -4.48943511673065 9492.76382148395 21.1737391561381 21.1737391561381 21.1737391561381 448.327229852176
Simulation complete!
Total wall time: 0:26:23
