LAMMPS (10 Sep 2025)
  using 8 OpenMP thread(s) per MPI task
Loaded 1 plugins from C:\Users\harsh\Downloads\LAMMPS 64-bit 10Sep2025\plugins
using multi-threaded neighbor list subroutines
Reading data file ...
  orthogonal box = (0 0 0) to (15.750804 27.281192 25.720954)
  1 by 1 by 1 MPI processor grid
  reading atoms ...
  432 atoms
  read_data CPU = 0.014 seconds
=== STAGE 1: Energy Minimization ===
Switching to 'neigh_modify every 1 delay 0 check yes' setting during minimization
No /omp style for force computation currently active
Neighbor list info ...
  update: every = 1 steps, delay = 0 steps, check = yes
  max neighbors/atom: 4000, page size: 100000
  master list distance cutoff = 8
  ghost atom cutoff = 8
  binsize = 4, bins = 4 7 7
  2 neighbor lists, perpetual/occasional/extra = 2 0 0
  (1) pair meam, perpetual
      attributes: full, newton on, omp
      pair build: full/bin/atomonly/omp
      stencil: full/bin/3d
      bin: standard
  (2) pair meam, perpetual, half/full from (1)
      attributes: half, newton on, omp
      pair build: halffull/newton/omp
      stencil: none
      bin: none
Setting up cg style minimization ...
  Unit style    : metal
  Current step  : 0
Per MPI rank memory allocation (min/avg/max) = 19.35 | 19.35 | 19.35 Mbytes
   Step          Temp          PotEng         KinEng         TotEng         Press          Volume           Lx             Ly             Lz      
         0   0             -1177.4651      0             -1177.4651     -99999.192      11052.312      15.750804      27.281192      25.720954    
       240   0             -1520.5203      0             -1520.5203     -56540.756      11052.312      15.750804      27.281192      25.720954    
Loop time of 2.61652 on 8 procs for 240 steps with 432 atoms

90.8% CPU use with 1 MPI tasks x 8 OpenMP threads

Minimization stats:
  Stopping criterion = energy tolerance
  Energy initial, next-to-last, final = 
     -1177.46509734826  -1520.51946648402  -1520.52027728604
  Force two-norm initial, final = 15.311691 9.037776
  Force max component initial, final = 1.5509843 4.9972312
  Final line search alpha, max atom move = 0.018989784 0.094896344
  Iterations, force evaluations = 240 650

MPI task timing breakdown:
Section |  min time  |  avg time  |  max time  |%varavg| %total
---------------------------------------------------------------
Pair    | 2.3896     | 2.3896     | 2.3896     |   0.0 | 91.33
Neigh   | 0.005528   | 0.005528   | 0.005528   |   0.0 |  0.21
Comm    | 0.004241   | 0.004241   | 0.004241   |   0.0 |  0.16
Output  | 0          | 0          | 0          |   0.0 |  0.00
Modify  | 0.20918    | 0.20918    | 0.20918    |   0.0 |  7.99
Other   |            | 0.007919   |            |       |  0.30

Nlocal:            432 ave         432 max         432 min
Histogram: 1 0 0 0 0 0 0 0 0 0
Nghost:           1796 ave        1796 max        1796 min
Histogram: 1 0 0 0 0 0 0 0 0 0
Neighs:          17825 ave       17825 max       17825 min
Histogram: 1 0 0 0 0 0 0 0 0 0
FullNghs:        35650 ave       35650 max       35650 min
Histogram: 1 0 0 0 0 0 0 0 0 0

Total # of neighbors = 35650
Ave neighs/atom = 82.523148
Neighbor list builds = 7
Dangerous builds = 0
Minimized PE/atom: -3.51972286408805 eV/atom
=== STAGE 2: NPT Equilibration at 400 K ===
No /omp style for force computation currently active
Setting up Verlet run ...
  Unit style    : metal
  Current step  : 0
  Time step     : 0.002
Per MPI rank memory allocation (min/avg/max) = 18.23 | 18.23 | 18.23 Mbytes
   Step          Temp          PotEng         KinEng         TotEng         Press          Volume           Lx             Ly             Lz      
         0   400           -1520.5203      22.284449     -1498.2358     -54387.142      11052.312      15.750804      27.281192      25.720954    
       500   930.75224     -1735.1785      51.853252     -1683.3252     -18568.687      6537.2629      13.221589      22.900464      21.590764    
      1000   499.14552     -1857.5439      27.807957     -1829.7359      3187.8829      5352.9366      12.369411      21.424449      20.199164    
      1500   423.464       -1882.7477      23.591655     -1859.1561      3120.8611      5187.6654      12.240777      21.201648      19.989105    
      2000   384.94745     -1900.495       21.445855     -1879.0491      4520.4221      5037.179       12.121252      20.994624      19.793921    
      2500   341.72928     -1918.9799      19.038122     -1899.9417     -215.98125      4961.0261      12.059857      20.888286      19.693665    
      3000   410.66515     -1918.0158      22.878617     -1895.1372     -2175.7431      4952.5114      12.052954      20.876329      19.682391    
      3500   415.95913     -1921.562       23.17355      -1898.3884      2115.8868      4903.7422      12.01326       20.807577      19.617572    
      4000   397.4187      -1926.9284      22.140642     -1904.7878     -737.24336      4880.1353      11.993952      20.774133      19.586041    
      4500   370.7264      -1932.8951      20.653584     -1912.2415      1058.8756      4864.6458      11.981249      20.752131      19.565297    
      5000   390.0519      -1932.2958      21.730229     -1910.5655      1494.331       4847.15        11.966868      20.727223      19.541813    
      5500   399.17634     -1930.8118      22.238562     -1908.5733     -1445.0872      4872.0079      11.98729       20.762595      19.575162    
      6000   408.65247     -1930.8274      22.766488     -1908.0609      2231.6475      4861.6962      11.978827      20.747936      19.561342    
      6500   387.96862     -1932.7329      21.614167     -1911.1187     -20.44841       4855.1075      11.973413      20.738559      19.552501    
      7000   400.6547      -1934.9567      22.320923     -1912.6358      4300.8096      4847.2329      11.966936      20.727341      19.541924    
      7500   416.84443     -1933.4167      23.222871     -1910.1938     -3050.524       4866.3431      11.982642      20.754544      19.567572    
      8000   394.69832     -1931.5343      21.989086     -1909.5452     -335.25753      4855.5907      11.97381       20.739247      19.55315     
      8500   384.68667     -1933.8468      21.431326     -1912.4155      470.47024      4852.019       11.970873      20.734161      19.548354    
      9000   382.7971      -1934.7813      21.326056     -1913.4553     -4673.5691      4862.379       11.979387      20.748907      19.562258    
      9500   410.09272     -1935.8723      22.846726     -1913.0256     -725.8342       4855.2438      11.973525      20.738753      19.552684    
     10000   381.23112     -1933.3648      21.238814     -1912.126       1627.2125      4853.6729      11.972233      20.736516      19.550575    
     10500   385.59428     -1936.3083      21.48189      -1914.8264     -225.12317      4853.4407      11.972042      20.736186      19.550263    
     11000   402.02176     -1937.8268      22.397083     -1915.4297     -1116.916       4850.1572      11.969342      20.731508      19.545854    
     11500   403.32112     -1934.8801      22.469472     -1912.4106     -103.14335      4853.3433      11.971962      20.736047      19.550133    
     12000   407.94583     -1934.5192      22.72712      -1911.7921     -4900.504       4865.7905      11.982188      20.753759      19.566831    
     12500   395.53092     -1936.8231      22.035472     -1914.7877     -3111.577       4854.2924      11.972743      20.737399      19.551407    
     13000   382.90567     -1935.788       21.332105     -1914.4559      5149.417       4836.8008      11.958345      20.712461      19.527895    
     13500   406.50902     -1935.8988      22.647074     -1913.2518     -5019.9989      4872.8789      11.988004      20.763832      19.576328    
     14000   398.43541     -1936.6775      22.197284     -1914.4802      2213.76        4846.2128      11.966096      20.725887      19.540553    
     14500   399.04969     -1937.2589      22.231506     -1915.0274     -4099.8256      4859.2637      11.976828      20.744475      19.558079    
     15000   382.59172     -1935.2714      21.314614     -1913.9568     -6363.955       4875.9314      11.990507      20.768167      19.580415    
     15500   407.62664     -1934.2736      22.709337     -1911.5642      1748.3255      4849.8519      11.969091      20.731073      19.545443    
     16000   403.12269     -1937.7729      22.458418     -1915.3145     -5084.4586      4859.6343      11.977133      20.745003      19.558576    
     16500   380.42116     -1936.5309      21.19369      -1915.3372     -133.09421      4852.3401      11.971137      20.734618      19.548785    
     17000   399.4672      -1935.5489      22.254766     -1913.2941      210.75885      4860.6965      11.978005      20.746514      19.560001    
     17500   417.88812     -1936.2969      23.281016     -1913.0159      4440.3605      4835.7768      11.957501      20.710999      19.526517    
     18000   383.97787     -1936.6295      21.391838     -1915.2376     -5980.9371      4868.7928      11.984652      20.758026      19.570855    
     18500   379.22122     -1937.5353      21.12684      -1916.4084      4627.4909      4843.8898      11.964184      20.722575      19.537431    
     19000   404.592       -1937.3366      22.540275     -1914.7963     -2103.118       4860.5584      11.977892      20.746317      19.559816    
     19500   405.74673     -1936.6818      22.604606     -1914.0772     -3571.7356      4864.1247      11.980821      20.75139       19.564598    
     20000   402.0324      -1936.6716      22.397676     -1914.2739     -4457.5531      4858.3971      11.976116      20.743242      19.556916    
Loop time of 185.487 on 8 procs for 20000 steps with 432 atoms

Performance: 18.632 ns/day, 1.288 hours/ns, 107.824 timesteps/s, 46.580 katom-step/s
91.0% CPU use with 1 MPI tasks x 8 OpenMP threads

MPI task timing breakdown:
Section |  min time  |  avg time  |  max time  |%varavg| %total
---------------------------------------------------------------
Pair    | 163.6      | 163.6      | 163.6      |   0.0 | 88.20
Neigh   | 0.029032   | 0.029032   | 0.029032   |   0.0 |  0.02
Comm    | 0.1598     | 0.1598     | 0.1598     |   0.0 |  0.09
Output  | 0.002576   | 0.002576   | 0.002576   |   0.0 |  0.00
Modify  | 21.666     | 21.666     | 21.666     |   0.0 | 11.68
Other   |            | 0.03359    |            |       |  0.02

Nlocal:            432 ave         432 max         432 min
Histogram: 1 0 0 0 0 0 0 0 0 0
Nghost:           2827 ave        2827 max        2827 min
Histogram: 1 0 0 0 0 0 0 0 0 0
Neighs:          40735 ave       40735 max       40735 min
Histogram: 1 0 0 0 0 0 0 0 0 0
FullNghs:        81470 ave       81470 max       81470 min
Histogram: 1 0 0 0 0 0 0 0 0 0

Total # of neighbors = 81470
Ave neighs/atom = 188.58796
Neighbor list builds = 33
Dangerous builds = 0
=== STAGE 3: NPT Production at 400 K ===
No /omp style for force computation currently active
Setting up Verlet run ...
  Unit style    : metal
  Current step  : 0
  Time step     : 0.001
Per MPI rank memory allocation (min/avg/max) = 18.97 | 18.97 | 18.97 Mbytes
   Step          Temp          PotEng         KinEng         TotEng         Press          Volume           Lx             Ly             Lz      
         0   402.0324      -1936.6716      22.397676     -1914.2739     -4457.5531      4858.3971      11.976116      20.743242      19.556916    
       500   391.66605     -1936.8947      21.820155     -1915.0746     -1859.0359      4864.3663      11.981019      20.751734      19.564922    
      1000   409.44742     -1938.7606      22.810775     -1915.9498      4726.7275      4846.61        11.966423      20.726453      19.541087    
      1500   380.38034     -1936.8004      21.191416     -1915.609       10177.413      4833.1451      11.955331      20.707241      19.522974    
      2000   402.43534     -1936.8491      22.420124     -1914.429      -5757.2932      4868.1996      11.984165      20.757183      19.57006     
      2500   417.15225     -1937.1248      23.24002      -1913.8848      730.96709      4853.5501      11.972132      20.736341      19.55041     
      3000   381.44312     -1938.3236      21.250625     -1917.073       1095.3063      4852.1975      11.97102       20.734415      19.548594    
      3500   407.46502     -1937.7592      22.700334     -1915.0589      1405.4968      4851.1886      11.97019       20.732978      19.547239    
      4000   417.25435     -1937.4246      23.245708     -1914.1789      1259.2509      4845.1115      11.96519       20.724317      19.539073    
      4500   415.5836      -1936.0806      23.152629     -1912.928       2297.3695      4850.0566      11.969259      20.731365      19.545718    
      5000   413.13359     -1935.0941      23.016136     -1912.0779      57.229316      4863.2252      11.980082      20.750111      19.563392    
      5500   403.37811     -1938.0649      22.472647     -1915.5922     -5130.385       4856.8926      11.97488       20.741101      19.554897    
      6000   380.58365     -1936.7735      21.202742     -1915.5708      1621.5629      4845.6257      11.965613      20.72505       19.539764    
      6500   417.07665     -1935.7516      23.235808     -1912.5158     -6130.7593      4870.1195      11.985741      20.759912      19.572632    
      7000   439.04097     -1937.1295      24.459465     -1912.6701     -2893.4741      4857.5747      11.975441      20.742071      19.555813    
      7500   419.35244     -1937.3178      23.362595     -1913.9552     -719.24275      4854.7921      11.973153      20.73811       19.552078    
      8000   431.28385     -1938.7471      24.027308     -1914.7198      3641.1271      4832.1728      11.954529      20.705852      19.521665    
      8500   394.70694     -1939.0098      21.989566     -1917.0203     -8991.5571      4879.3768      11.99333       20.773057      19.585026    
      9000   358.5922      -1936.466       19.977574     -1916.4885      1291.516       4855.8311      11.974007      20.739589      19.553472    
      9500   411.80384     -1936.65        22.942054     -1913.708       5841.8146      4840.0716      11.96104       20.717128      19.532296    
     10000   394.24791     -1937.4073      21.963994     -1915.4433     -4887.0017      4858.2344      11.975983      20.74301       19.556698    
     10500   378.40946     -1936.272       21.081616     -1915.1904     -6167.0031      4868.5608      11.984462      20.757697      19.570544    
     11000   404.27475     -1937.684       22.5226       -1915.1614      5281.8869      4845.4542      11.965472      20.724805      19.539534    
     11500   407.08829     -1936.7824      22.679345     -1914.1031      2201.7732      4841.9795      11.962611      20.71985       19.534862    
     12000   381.12721     -1938.4536      21.233025     -1917.2206      310.67654      4856.9096      11.974894      20.741125      19.55492     
     12500   392.64076     -1938.7433      21.874457     -1916.8689     -5192.0277      4868.4405      11.984363      20.757526      19.570383    
     13000   420.14706     -1938.0117      23.406864     -1914.6048      8183.5974      4824.5021      11.9482        20.69489       19.51133     
     13500   376.88846     -1935.0964      20.996879     -1914.0996     -1035.2116      4844.5893      11.96476       20.723572      19.538371    
     14000   396.3437      -1938.5671      22.080752     -1916.4863      8148.4256      4818.071       11.942889      20.685691      19.502656    
     14500   398.01469     -1933.7632      22.173845     -1911.5894     -9417.6958      4883.9889      11.997108      20.7796        19.591195    
     15000   381.87931     -1936.7652      21.274925     -1915.4903     -508.67307      4840.0363      11.961011      20.717078      19.532249    
     15500   409.40002     -1937.8618      22.808135     -1915.0537     -499.94501      4851.3239      11.970302      20.73317       19.547421    
     16000   369.01398     -1937.0335      20.558183     -1916.4753     -632.5359       4842.4425      11.962992      20.720511      19.535485    
     16500   404.21339     -1937.6159      22.519181     -1915.0967      1270.4349      4846.8646      11.966633      20.726816      19.54143     
     17000   391.11887     -1936.1583      21.789672     -1914.3686      2957.7897      4841.6593      11.962347      20.719393      19.534431    
     17500   406.70194     -1938.3917      22.657822     -1915.7339      1924.6599      4840.626       11.961496      20.717919      19.533042    
     18000   385.00058     -1935.8175      21.448815     -1914.3686     -6468.523       4872.1693      11.987422      20.762824      19.575378    
     18500   404.33389     -1938.6626      22.525895     -1916.1367      3730.4445      4834.6677      11.956587      20.709415      19.525024    
     19000   399.76291     -1937.2438      22.271241     -1914.9725     -6106.4839      4873.8804      11.988825      20.765254      19.577669    
     19500   422.98785     -1936.9103      23.565128     -1913.3451     -795.49923      4844.8432      11.964969      20.723934      19.538713    
     20000   418.98433     -1936.3196      23.342087     -1912.9776     -5945.2135      4863.6955      11.980468      20.75078       19.564023    
     20500   396.10689     -1935.6921      22.06756      -1913.6246      5350.4138      4833.95        11.955995      20.708391      19.524058    
     21000   409.85656     -1938.3791      22.833569     -1915.5455     -364.0035       4842.5919      11.963115      20.720724      19.535686    
     21500   374.37022     -1938.1939      20.856585     -1917.3373     -11153.337      4879.0164      11.993035      20.772546      19.584544    
     22000   368.09737     -1938.4912      20.507118     -1917.9841      5521.3577      4824.4525      11.94816       20.694819      19.511263    
     22500   392.88886     -1937.5791      21.888279     -1915.6908     -25.329429      4860.7989      11.978089      20.74666       19.560138    
     23000   405.7887      -1936.2968      22.606944     -1913.6899      4846.7978      4846.0407      11.965955      20.725641      19.540322    
     23500   411.50571     -1938.0559      22.925445     -1915.1305     -7897.6307      4872.7527      11.9879        20.763653      19.576159    
     24000   384.00832     -1937.0919      21.393535     -1915.6983      1549.8429      4855.9866      11.974135      20.739811      19.553681    
     24500   360.06729     -1939.7007      20.059753     -1919.6409     -3691.5847      4852.5887      11.971342      20.734972      19.549119    
     25000   428.49807     -1938.4562      23.872108     -1914.5841     -2493.2223      4862.4048      11.979408      20.748944      19.562292    
     25500   413.33409     -1938.66        23.027306     -1915.6327     -5637.0432      4877.6459      11.991912      20.7706        19.58271     
     26000   377.55578     -1939.0515      21.034056     -1918.0174      11604.129      4815.4725      11.940742      20.681971      19.49915     
     26500   400.925       -1940.1553      22.335982     -1917.8194     -3658.6562      4862.6076      11.979575      20.749232      19.562564    
     27000   391.08038     -1938.1479      21.787527     -1916.3603     -2364.9926      4853.0774      11.971744      20.735668      19.549776    
     27500   427.285       -1937.8934      23.804527     -1914.0889     -1293.0891      4854.4054      11.972836      20.737559      19.551559    
     28000   391.40692     -1938.2224      21.805719     -1916.4167     -2958.172       4863.5487      11.980348      20.750571      19.563826    
     28500   379.17361     -1938.0129      21.124187     -1916.8887     -1715.9713      4864.8779      11.981439      20.752461      19.565608    
     29000   404.11332     -1940.514       22.513607     -1918.0004     -179.67153      4849.4896      11.968793      20.730557      19.544957    
     29500   400.58138     -1939.4028      22.316838     -1917.086       2262.0491      4851.6562      11.970575      20.733644      19.547867    
     30000   412.14778     -1938.9594      22.961216     -1915.9981      2803.4395      4859.7174      11.977201      20.745121      19.558687    
     30500   407.05646     -1938.2003      22.677572     -1915.5227     -5462.6108      4880.3325      11.994113      20.774413      19.586305    
     31000   399.28177     -1937.0821      22.244436     -1914.8377      9353.9776      4839.2205      11.960338      20.715914      19.531151    
     31500   385.29147     -1938.3196      21.46502      -1916.8546     -7259.6438      4879.7153      11.993607      20.773537      19.585479    
     32000   403.88215     -1939.2518      22.500728     -1916.7511     -887.55308      4843.7522      11.964071      20.722379      19.537246    
     32500   399.43077     -1938.6175      22.252736     -1916.3648     -3419.9014      4870.3404      11.985922      20.760226      19.572928    
     33000   404.75358     -1936.1787      22.549276     -1913.6294      3474.7697      4845.5279      11.965533      20.72491       19.539633    
     33500   397.47357     -1936.7622      22.143699     -1914.6185     -4321.0386      4870.9997      11.986463      20.761162      19.573812    
     34000   407.72803     -1938.8582      22.714986     -1916.1433     -2425.4803      4853.6998      11.972255      20.736555      19.550611    
     34500   378.02337     -1937.9465      21.060106     -1916.8864      1855.4109      4859.4227      11.976959      20.744701      19.558292    
     35000   366.69261     -1936.7884      20.428857     -1916.3596     -2956.1832      4848.3707      11.967872      20.728963      19.543453    
     35500   433.27152     -1938.3067      24.138043     -1914.1687      885.18638      4839.3899      11.960478      20.716156      19.531379    
     36000   421.46528     -1938.0933      23.480304     -1914.613      -3355.0091      4865.7443      11.98215       20.753693      19.566769    
     36500   389.09665     -1939.5163      21.677011     -1917.8392      4644.6556      4851.9415      11.97081       20.73405       19.54825     
     37000   383.13145     -1938.6266      21.344683     -1917.2819     -3450.5432      4861.7139      11.978841      20.747961      19.561365    
     37500   394.19048     -1937.6167      21.960794     -1915.6559     -3885.864       4864.8254      11.981396      20.752387      19.565538    
     38000   414.43368     -1939.033       23.088566     -1915.9444      5140.7635      4844.5499      11.964728      20.723516      19.538318    
     38500   376.36227     -1937.9372      20.967564     -1916.9696     -1045.2104      4865.7404      11.982147      20.753688      19.566764    
     39000   372.45578     -1939.8642      20.749929     -1919.1143     -4259.2124      4857.302       11.975216      20.741683      19.555447    
     39500   388.46764     -1937.3373      21.641968     -1915.6953      6787.412       4844.4488      11.964644      20.723372      19.538182    
     40000   389.16919     -1939.2398      21.681052     -1917.5587     -4255.9755      4863.2657      11.980115      20.750169      19.563446    
     40500   419.78247     -1937.7137      23.386553     -1914.3271      3932.8612      4834.9934      11.956855      20.70988       19.525462    
     41000   399.11783     -1937.3436      22.235302     -1915.1083     -1693.2315      4859.1522      11.976737      20.744317      19.557929    
     41500   381.36307     -1937.7567      21.246165     -1916.5105      7801.3053      4831.958       11.954352      20.705546      19.521376    
     42000   396.70748     -1939.1265      22.101019     -1917.0255      3652.44        4839.0853      11.960227      20.715721      19.530969    
     42500   409.70004     -1938.1894      22.824849     -1915.3646      3273.229       4845.6992      11.965674      20.725155      19.539863    
     43000   434.14812     -1939.888       24.186879     -1915.7011      213.13555      4846.3578      11.966216      20.726094      19.540748    
     43500   406.3215      -1938.5521      22.636627     -1915.9154      435.08973      4845.8112      11.965766      20.725314      19.540014    
     44000   405.4675      -1939.9872      22.58905      -1917.3981      2138.696       4843.6693      11.964003      20.72226       19.537134    
     44500   374.06367     -1938.0383      20.839507     -1917.1988      3758.7728      4841.0416      11.961839      20.718512      19.533601    
     45000   408.13302     -1938.882       22.737548     -1916.1444     -2790.6246      4861.2216      11.978437      20.747261      19.560705    
     45500   419.7402      -1938.4442      23.384197     -1915.06        4618.9215      4836.2208      11.957867      20.711633      19.527115    
     46000   427.63168     -1938.1007      23.823841     -1914.2769     -1429.9476      4863.726       11.980493      20.750823      19.564064    
     46500   412.88102     -1940.3686      23.002065     -1917.3665      2414.1463      4842.2022      11.962794      20.720168      19.535162    
     47000   398.55172     -1939.6374      22.203764     -1917.4336      930.95613      4839.9735      11.960959      20.716988      19.532164    
     47500   398.18887     -1938.4798      22.183549     -1916.2962     -6866.1167      4864.8143      11.981387      20.752371      19.565523    
     48000   429.533       -1940.2224      23.929766     -1916.2927     -3947.5525      4860.3795      11.977745      20.746063      19.559576    
     48500   398.92581     -1939.6471      22.224605     -1917.4225     -5037.7592      4859.4413      11.976974      20.744728      19.558317    
     49000   381.1438      -1939.1835      21.233949     -1917.9496      270.60407      4843.4213      11.963798      20.721907      19.536801    
     49500   413.75159     -1939.9654      23.050566     -1916.9149      1771.7486      4841.3238      11.962071      20.718915      19.53398     
     50000   437.96802     -1938.7681      24.39969      -1914.3684     -5425.3015      4857.8215      11.975643      20.742423      19.556144    
Loop time of 501.526 on 8 procs for 50000 steps with 432 atoms

Performance: 8.614 ns/day, 2.786 hours/ns, 99.696 timesteps/s, 43.069 katom-step/s
90.2% CPU use with 1 MPI tasks x 8 OpenMP threads

MPI task timing breakdown:
Section |  min time  |  avg time  |  max time  |%varavg| %total
---------------------------------------------------------------
Pair    | 443.01     | 443.01     | 443.01     |   0.0 | 88.33
Neigh   | 0.002189   | 0.002189   | 0.002189   |   0.0 |  0.00
Comm    | 0.45259    | 0.45259    | 0.45259    |   0.0 |  0.09
Output  | 0.005803   | 0.005803   | 0.005803   |   0.0 |  0.00
Modify  | 57.979     | 57.979     | 57.979     |   0.0 | 11.56
Other   |            | 0.08052    |            |       |  0.02

Nlocal:            432 ave         432 max         432 min
Histogram: 1 0 0 0 0 0 0 0 0 0
Nghost:           2831 ave        2831 max        2831 min
Histogram: 1 0 0 0 0 0 0 0 0 0
Neighs:          40531 ave       40531 max       40531 min
Histogram: 1 0 0 0 0 0 0 0 0 0
FullNghs:        81062 ave       81062 max       81062 min
Histogram: 1 0 0 0 0 0 0 0 0 0

Total # of neighbors = 81062
Ave neighs/atom = 187.64352
Neighbor list builds = 2
Dangerous builds = 0

=== FINAL RESULTS: DHCP at 400 K ===
Atoms: 432 | PE/atom: -4.48842155283097 eV/atom
WARNING: Detected non-ASCII characters in input. Will try to continue by replacing with ASCII equivalents where known. (src/input.cpp:479)
Volume: 4857.82145057976 …³ | Area: 248.403854507218 ²
==========================================
DHCP 400 432 -4.48842155283097 4857.82145057976 11.9756432921292 20.7424226363253 19.5561436041991 248.403854507218
Simulation complete!
Total wall time: 0:11:29
