# DHCP structure - OPTIMIZED (smaller supercell)
# Composition: {'Al': 0.25, 'Fe': 0.75, 'Ni': 0.0}
# Generated for Assignment 2 - MM309 (Optimized)

432 atoms
3 atom types

0.0 15.75080355 xlo xhi
0.0 27.28119201 ylo yhi
0.0 25.72095449 zlo zhi

Masses

1 26.9815  # Al
2 55.8450  # Fe
3 58.6934  # Ni

Atoms # atomic

1 2 0.00000000 0.00000000 0.00000000
2 1 0.00000000 4.54686534 0.00000000
3 1 0.00000000 9.09373067 0.00000000
4 2 0.00000000 13.64059601 0.00000000
5 2 0.00000000 18.18746134 0.00000000
6 1 0.00000000 22.73432668 0.00000000
7 2 2.62513393 0.00000000 0.00000000
8 2 2.62513393 4.54686534 0.00000000
9 2 2.62513393 9.09373067 0.00000000
10 1 2.62513393 13.64059601 0.00000000
11 2 2.62513393 18.18746134 0.00000000
12 2 2.62513393 22.73432668 0.00000000
13 2 5.25026785 0.00000000 0.00000000
14 1 5.25026785 4.54686534 0.00000000
15 2 5.25026785 9.09373067 0.00000000
16 2 5.25026785 13.64059601 0.00000000
17 1 5.25026785 18.18746134 0.00000000
18 2 5.25026785 22.73432668 0.00000000
19 1 7.87540178 0.00000000 0.00000000
20 1 7.87540178 4.54686534 0.00000000
21 1 7.87540178 9.09373067 0.00000000
22 2 7.87540178 13.64059601 0.00000000
23 1 7.87540178 18.18746134 0.00000000
24 2 7.87540178 22.73432668 0.00000000
25 2 10.50053570 0.00000000 0.00000000
26 2 10.50053570 4.54686534 0.00000000
27 1 10.50053570 9.09373067 0.00000000
28 2 10.50053570 13.64059601 0.00000000
29 2 10.50053570 18.18746134 0.00000000
30 2 10.50053570 22.73432668 0.00000000
31 2 13.12566963 0.00000000 0.00000000
32 1 13.12566963 4.54686534 0.00000000
33 2 13.12566963 9.09373067 0.00000000
34 2 13.12566963 13.64059601 0.00000000
35 2 13.12566963 18.18746134 0.00000000
36 2 13.12566963 22.73432668 0.00000000
37 2 1.31256696 2.27343267 2.14341287
38 1 1.31256696 6.82029800 2.14341287
39 2 1.31256696 11.36716334 2.14341287
40 2 1.31256696 15.91402867 2.14341287
41 2 1.31256696 20.46089401 2.14341287
42 2 1.31256696 25.00775934 2.14341287
43 1 3.93770089 2.27343267 2.14341287
44 2 3.93770089 6.82029800 2.14341287
45 2 3.93770089 11.36716334 2.14341287
46 2 3.93770089 15.91402867 2.14341287
47 2 3.93770089 20.46089401 2.14341287
48 2 3.93770089 25.00775934 2.14341287
49 2 6.56283481 2.27343267 2.14341287
50 1 6.56283481 6.82029800 2.14341287
51 1 6.56283481 11.36716334 2.14341287
52 2 6.56283481 15.91402867 2.14341287
53 2 6.56283481 20.46089401 2.14341287
54 2 6.56283481 25.00775934 2.14341287
55 2 9.18796874 2.27343267 2.14341287
56 2 9.18796874 6.82029800 2.14341287
57 2 9.18796874 11.36716334 2.14341287
58 2 9.18796874 15.91402867 2.14341287
59 2 9.18796874 20.46089401 2.14341287
60 2 9.18796874 25.00775934 2.14341287
61 1 11.81310266 2.27343267 2.14341287
62 2 11.81310266 6.82029800 2.14341287
63 1 11.81310266 11.36716334 2.14341287
64 2 11.81310266 15.91402867 2.14341287
65 1 11.81310266 20.46089401 2.14341287
66 2 11.81310266 25.00775934 2.14341287
67 2 14.43823659 2.27343267 2.14341287
68 2 14.43823659 6.82029800 2.14341287
69 2 14.43823659 11.36716334 2.14341287
70 1 14.43823659 15.91402867 2.14341287
71 1 14.43823659 20.46089401 2.14341287
72 1 14.43823659 25.00775934 2.14341287
73 2 0.00000000 0.00000000 4.28682575
74 2 0.00000000 4.54686534 4.28682575
75 1 0.00000000 9.09373067 4.28682575
76 2 0.00000000 13.64059601 4.28682575
77 2 0.00000000 18.18746134 4.28682575
78 2 0.00000000 22.73432668 4.28682575
79 2 2.62513393 0.00000000 4.28682575
80 2 2.62513393 4.54686534 4.28682575
81 2 2.62513393 9.09373067 4.28682575
82 1 2.62513393 13.64059601 4.28682575
83 2 2.62513393 18.18746134 4.28682575
84 2 2.62513393 22.73432668 4.28682575
85 2 5.25026785 0.00000000 4.28682575
86 2 5.25026785 4.54686534 4.28682575
87 2 5.25026785 9.09373067 4.28682575
88 2 5.25026785 13.64059601 4.28682575
89 2 5.25026785 18.18746134 4.28682575
90 2 5.25026785 22.73432668 4.28682575
91 2 7.87540178 0.00000000 4.28682575
92 2 7.87540178 4.54686534 4.28682575
93 2 7.87540178 9.09373067 4.28682575
94 2 7.87540178 13.64059601 4.28682575
95 1 7.87540178 18.18746134 4.28682575
96 2 7.87540178 22.73432668 4.28682575
97 2 10.50053570 0.00000000 4.28682575
98 2 10.50053570 4.54686534 4.28682575
99 1 10.50053570 9.09373067 4.28682575
100 2 10.50053570 13.64059601 4.28682575
101 2 10.50053570 18.18746134 4.28682575
102 2 10.50053570 22.73432668 4.28682575
103 2 13.12566963 0.00000000 4.28682575
104 2 13.12566963 4.54686534 4.28682575
105 2 13.12566963 9.09373067 4.28682575
106 2 13.12566963 13.64059601 4.28682575
107 2 13.12566963 18.18746134 4.28682575
108 2 13.12566963 22.73432668 4.28682575
109 2 1.31256696 0.00000000 6.43023862
110 2 1.31256696 4.54686534 6.43023862
111 1 1.31256696 9.09373067 6.43023862
112 1 1.31256696 13.64059601 6.43023862
113 2 1.31256696 18.18746134 6.43023862
114 2 1.31256696 22.73432668 6.43023862
115 1 3.93770089 0.00000000 6.43023862
116 2 3.93770089 4.54686534 6.43023862
117 2 3.93770089 9.09373067 6.43023862
118 2 3.93770089 13.64059601 6.43023862
119 2 3.93770089 18.18746134 6.43023862
120 2 3.93770089 22.73432668 6.43023862
121 2 6.56283481 0.00000000 6.43023862
122 1 6.56283481 4.54686534 6.43023862
123 2 6.56283481 9.09373067 6.43023862
124 1 6.56283481 13.64059601 6.43023862
125 1 6.56283481 18.18746134 6.43023862
126 1 6.56283481 22.73432668 6.43023862
127 2 9.18796874 0.00000000 6.43023862
128 2 9.18796874 4.54686534 6.43023862
129 2 9.18796874 9.09373067 6.43023862
130 2 9.18796874 13.64059601 6.43023862
131 2 9.18796874 18.18746134 6.43023862
132 2 9.18796874 22.73432668 6.43023862
133 1 11.81310266 0.00000000 6.43023862
134 2 11.81310266 4.54686534 6.43023862
135 2 11.81310266 9.09373067 6.43023862
136 1 11.81310266 13.64059601 6.43023862
137 2 11.81310266 18.18746134 6.43023862
138 2 11.81310266 22.73432668 6.43023862
139 2 14.43823659 0.00000000 6.43023862
140 2 14.43823659 4.54686534 6.43023862
141 1 14.43823659 9.09373067 6.43023862
142 1 14.43823659 13.64059601 6.43023862
143 2 14.43823659 18.18746134 6.43023862
144 2 14.43823659 22.73432668 6.43023862
145 2 0.00000000 0.00000000 8.57365150
146 2 0.00000000 4.54686534 8.57365150
147 2 0.00000000 9.09373067 8.57365150
148 1 0.00000000 13.64059601 8.57365150
149 2 0.00000000 18.18746134 8.57365150
150 2 0.00000000 22.73432668 8.57365150
151 2 2.62513393 0.00000000 8.57365150
152 2 2.62513393 4.54686534 8.57365150
153 2 2.62513393 9.09373067 8.57365150
154 2 2.62513393 13.64059601 8.57365150
155 2 2.62513393 18.18746134 8.57365150
156 2 2.62513393 22.73432668 8.57365150
157 2 5.25026785 0.00000000 8.57365150
158 2 5.25026785 4.54686534 8.57365150
159 2 5.25026785 9.09373067 8.57365150
160 2 5.25026785 13.64059601 8.57365150
161 2 5.25026785 18.18746134 8.57365150
162 1 5.25026785 22.73432668 8.57365150
163 1 7.87540178 0.00000000 8.57365150
164 2 7.87540178 4.54686534 8.57365150
165 1 7.87540178 9.09373067 8.57365150
166 2 7.87540178 13.64059601 8.57365150
167 1 7.87540178 18.18746134 8.57365150
168 2 7.87540178 22.73432668 8.57365150
169 2 10.50053570 0.00000000 8.57365150
170 2 10.50053570 4.54686534 8.57365150
171 2 10.50053570 9.09373067 8.57365150
172 2 10.50053570 13.64059601 8.57365150
173 2 10.50053570 18.18746134 8.57365150
174 2 10.50053570 22.73432668 8.57365150
175 2 13.12566963 0.00000000 8.57365150
176 2 13.12566963 4.54686534 8.57365150
177 2 13.12566963 9.09373067 8.57365150
178 2 13.12566963 13.64059601 8.57365150
179 2 13.12566963 18.18746134 8.57365150
180 2 13.12566963 22.73432668 8.57365150
181 1 1.31256696 2.27343267 10.71706437
182 2 1.31256696 6.82029800 10.71706437
183 2 1.31256696 11.36716334 10.71706437
184 2 1.31256696 15.91402867 10.71706437
185 2 1.31256696 20.46089401 10.71706437
186 2 1.31256696 25.00775934 10.71706437
187 2 3.93770089 2.27343267 10.71706437
188 1 3.93770089 6.82029800 10.71706437
189 1 3.93770089 11.36716334 10.71706437
190 2 3.93770089 15.91402867 10.71706437
191 2 3.93770089 20.46089401 10.71706437
192 2 3.93770089 25.00775934 10.71706437
193 2 6.56283481 2.27343267 10.71706437
194 1 6.56283481 6.82029800 10.71706437
195 2 6.56283481 11.36716334 10.71706437
196 2 6.56283481 15.91402867 10.71706437
197 2 6.56283481 20.46089401 10.71706437
198 2 6.56283481 25.00775934 10.71706437
199 2 9.18796874 2.27343267 10.71706437
200 2 9.18796874 6.82029800 10.71706437
201 2 9.18796874 11.36716334 10.71706437
202 2 9.18796874 15.91402867 10.71706437
203 1 9.18796874 20.46089401 10.71706437
204 1 9.18796874 25.00775934 10.71706437
205 2 11.81310266 2.27343267 10.71706437
206 2 11.81310266 6.82029800 10.71706437
207 1 11.81310266 11.36716334 10.71706437
208 2 11.81310266 15.91402867 10.71706437
209 1 11.81310266 20.46089401 10.71706437
210 2 11.81310266 25.00775934 10.71706437
211 2 14.43823659 2.27343267 10.71706437
212 2 14.43823659 6.82029800 10.71706437
213 2 14.43823659 11.36716334 10.71706437
214 1 14.43823659 15.91402867 10.71706437
215 2 14.43823659 20.46089401 10.71706437
216 2 14.43823659 25.00775934 10.71706437
217 2 0.00000000 0.00000000 12.86047725
218 2 0.00000000 4.54686534 12.86047725
219 2 0.00000000 9.09373067 12.86047725
220 2 0.00000000 13.64059601 12.86047725
221 2 0.00000000 18.18746134 12.86047725
222 2 0.00000000 22.73432668 12.86047725
223 2 2.62513393 0.00000000 12.86047725
224 2 2.62513393 4.54686534 12.86047725
225 1 2.62513393 9.09373067 12.86047725
226 2 2.62513393 13.64059601 12.86047725
227 2 2.62513393 18.18746134 12.86047725
228 1 2.62513393 22.73432668 12.86047725
229 1 5.25026785 0.00000000 12.86047725
230 2 5.25026785 4.54686534 12.86047725
231 2 5.25026785 9.09373067 12.86047725
232 1 5.25026785 13.64059601 12.86047725
233 2 5.25026785 18.18746134 12.86047725
234 2 5.25026785 22.73432668 12.86047725
235 2 7.87540178 0.00000000 12.86047725
236 2 7.87540178 4.54686534 12.86047725
237 1 7.87540178 9.09373067 12.86047725
238 2 7.87540178 13.64059601 12.86047725
239 2 7.87540178 18.18746134 12.86047725
240 2 7.87540178 22.73432668 12.86047725
241 2 10.50053570 0.00000000 12.86047725
242 1 10.50053570 4.54686534 12.86047725
243 2 10.50053570 9.09373067 12.86047725
244 2 10.50053570 13.64059601 12.86047725
245 2 10.50053570 18.18746134 12.86047725
246 2 10.50053570 22.73432668 12.86047725
247 2 13.12566963 0.00000000 12.86047725
248 1 13.12566963 4.54686534 12.86047725
249 2 13.12566963 9.09373067 12.86047725
250 2 13.12566963 13.64059601 12.86047725
251 1 13.12566963 18.18746134 12.86047725
252 2 13.12566963 22.73432668 12.86047725
253 1 1.31256696 0.00000000 15.00389012
254 2 1.31256696 4.54686534 15.00389012
255 2 1.31256696 9.09373067 15.00389012
256 2 1.31256696 13.64059601 15.00389012
257 2 1.31256696 18.18746134 15.00389012
258 2 1.31256696 22.73432668 15.00389012
259 2 3.93770089 0.00000000 15.00389012
260 2 3.93770089 4.54686534 15.00389012
261 2 3.93770089 9.09373067 15.00389012
262 2 3.93770089 13.64059601 15.00389012
263 2 3.93770089 18.18746134 15.00389012
264 2 3.93770089 22.73432668 15.00389012
265 2 6.56283481 0.00000000 15.00389012
266 2 6.56283481 4.54686534 15.00389012
267 1 6.56283481 9.09373067 15.00389012
268 2 6.56283481 13.64059601 15.00389012
269 1 6.56283481 18.18746134 15.00389012
270 2 6.56283481 22.73432668 15.00389012
271 1 9.18796874 0.00000000 15.00389012
272 1 9.18796874 4.54686534 15.00389012
273 2 9.18796874 9.09373067 15.00389012
274 2 9.18796874 13.64059601 15.00389012
275 1 9.18796874 18.18746134 15.00389012
276 2 9.18796874 22.73432668 15.00389012
277 2 11.81310266 0.00000000 15.00389012
278 1 11.81310266 4.54686534 15.00389012
279 2 11.81310266 9.09373067 15.00389012
280 2 11.81310266 13.64059601 15.00389012
281 2 11.81310266 18.18746134 15.00389012
282 2 11.81310266 22.73432668 15.00389012
283 1 14.43823659 0.00000000 15.00389012
284 2 14.43823659 4.54686534 15.00389012
285 1 14.43823659 9.09373067 15.00389012
286 1 14.43823659 13.64059601 15.00389012
287 2 14.43823659 18.18746134 15.00389012
288 1 14.43823659 22.73432668 15.00389012
289 2 0.00000000 0.00000000 17.14730299
290 1 0.00000000 4.54686534 17.14730299
291 2 0.00000000 9.09373067 17.14730299
292 2 0.00000000 13.64059601 17.14730299
293 1 0.00000000 18.18746134 17.14730299
294 2 0.00000000 22.73432668 17.14730299
295 1 2.62513393 0.00000000 17.14730299
296 2 2.62513393 4.54686534 17.14730299
297 2 2.62513393 9.09373067 17.14730299
298 2 2.62513393 13.64059601 17.14730299
299 2 2.62513393 18.18746134 17.14730299
300 1 2.62513393 22.73432668 17.14730299
301 2 5.25026785 0.00000000 17.14730299
302 2 5.25026785 4.54686534 17.14730299
303 1 5.25026785 9.09373067 17.14730299
304 2 5.25026785 13.64059601 17.14730299
305 1 5.25026785 18.18746134 17.14730299
306 1 5.25026785 22.73432668 17.14730299
307 2 7.87540178 0.00000000 17.14730299
308 2 7.87540178 4.54686534 17.14730299
309 2 7.87540178 9.09373067 17.14730299
310 2 7.87540178 13.64059601 17.14730299
311 2 7.87540178 18.18746134 17.14730299
312 2 7.87540178 22.73432668 17.14730299
313 2 10.50053570 0.00000000 17.14730299
314 2 10.50053570 4.54686534 17.14730299
315 1 10.50053570 9.09373067 17.14730299
316 2 10.50053570 13.64059601 17.14730299
317 2 10.50053570 18.18746134 17.14730299
318 2 10.50053570 22.73432668 17.14730299
319 2 13.12566963 0.00000000 17.14730299
320 2 13.12566963 4.54686534 17.14730299
321 2 13.12566963 9.09373067 17.14730299
322 2 13.12566963 13.64059601 17.14730299
323 2 13.12566963 18.18746134 17.14730299
324 2 13.12566963 22.73432668 17.14730299
325 2 1.31256696 2.27343267 19.29071587
326 1 1.31256696 6.82029800 19.29071587
327 1 1.31256696 11.36716334 19.29071587
328 1 1.31256696 15.91402867 19.29071587
329 2 1.31256696 20.46089401 19.29071587
330 2 1.31256696 25.00775934 19.29071587
331 1 3.93770089 2.27343267 19.29071587
332 2 3.93770089 6.82029800 19.29071587
333 1 3.93770089 11.36716334 19.29071587
334 1 3.93770089 15.91402867 19.29071587
335 2 3.93770089 20.46089401 19.29071587
336 2 3.93770089 25.00775934 19.29071587
337 2 6.56283481 2.27343267 19.29071587
338 1 6.56283481 6.82029800 19.29071587
339 1 6.56283481 11.36716334 19.29071587
340 2 6.56283481 15.91402867 19.29071587
341 2 6.56283481 20.46089401 19.29071587
342 1 6.56283481 25.00775934 19.29071587
343 2 9.18796874 2.27343267 19.29071587
344 1 9.18796874 6.82029800 19.29071587
345 2 9.18796874 11.36716334 19.29071587
346 2 9.18796874 15.91402867 19.29071587
347 2 9.18796874 20.46089401 19.29071587
348 2 9.18796874 25.00775934 19.29071587
349 2 11.81310266 2.27343267 19.29071587
350 2 11.81310266 6.82029800 19.29071587
351 2 11.81310266 11.36716334 19.29071587
352 1 11.81310266 15.91402867 19.29071587
353 2 11.81310266 20.46089401 19.29071587
354 2 11.81310266 25.00775934 19.29071587
355 1 14.43823659 2.27343267 19.29071587
356 2 14.43823659 6.82029800 19.29071587
357 1 14.43823659 11.36716334 19.29071587
358 2 14.43823659 15.91402867 19.29071587
359 2 14.43823659 20.46089401 19.29071587
360 2 14.43823659 25.00775934 19.29071587
361 2 0.00000000 0.00000000 21.43412874
362 2 0.00000000 4.54686534 21.43412874
363 2 0.00000000 9.09373067 21.43412874
364 2 0.00000000 13.64059601 21.43412874
365 1 0.00000000 18.18746134 21.43412874
366 2 0.00000000 22.73432668 21.43412874
367 2 2.62513393 0.00000000 21.43412874
368 2 2.62513393 4.54686534 21.43412874
369 2 2.62513393 9.09373067 21.43412874
370 2 2.62513393 13.64059601 21.43412874
371 2 2.62513393 18.18746134 21.43412874
372 2 2.62513393 22.73432668 21.43412874
373 2 5.25026785 0.00000000 21.43412874
374 1 5.25026785 4.54686534 21.43412874
375 2 5.25026785 9.09373067 21.43412874
376 2 5.25026785 13.64059601 21.43412874
377 2 5.25026785 18.18746134 21.43412874
378 2 5.25026785 22.73432668 21.43412874
379 2 7.87540178 0.00000000 21.43412874
380 2 7.87540178 4.54686534 21.43412874
381 2 7.87540178 9.09373067 21.43412874
382 1 7.87540178 13.64059601 21.43412874
383 2 7.87540178 18.18746134 21.43412874
384 1 7.87540178 22.73432668 21.43412874
385 2 10.50053570 0.00000000 21.43412874
386 2 10.50053570 4.54686534 21.43412874
387 1 10.50053570 9.09373067 21.43412874
388 2 10.50053570 13.64059601 21.43412874
389 2 10.50053570 18.18746134 21.43412874
390 1 10.50053570 22.73432668 21.43412874
391 2 13.12566963 0.00000000 21.43412874
392 2 13.12566963 4.54686534 21.43412874
393 2 13.12566963 9.09373067 21.43412874
394 1 13.12566963 13.64059601 21.43412874
395 2 13.12566963 18.18746134 21.43412874
396 2 13.12566963 22.73432668 21.43412874
397 1 1.31256696 0.00000000 23.57754162
398 1 1.31256696 4.54686534 23.57754162
399 2 1.31256696 9.09373067 23.57754162
400 2 1.31256696 13.64059601 23.57754162
401 1 1.31256696 18.18746134 23.57754162
402 2 1.31256696 22.73432668 23.57754162
403 2 3.93770089 0.00000000 23.57754162
404 2 3.93770089 4.54686534 23.57754162
405 2 3.93770089 9.09373067 23.57754162
406 1 3.93770089 13.64059601 23.57754162
407 2 3.93770089 18.18746134 23.57754162
408 2 3.93770089 22.73432668 23.57754162
409 2 6.56283481 0.00000000 23.57754162
410 1 6.56283481 4.54686534 23.57754162
411 1 6.56283481 9.09373067 23.57754162
412 2 6.56283481 13.64059601 23.57754162
413 2 6.56283481 18.18746134 23.57754162
414 2 6.56283481 22.73432668 23.57754162
415 2 9.18796874 0.00000000 23.57754162
416 2 9.18796874 4.54686534 23.57754162
417 2 9.18796874 9.09373067 23.57754162
418 2 9.18796874 13.64059601 23.57754162
419 2 9.18796874 18.18746134 23.57754162
420 1 9.18796874 22.73432668 23.57754162
421 2 11.81310266 0.00000000 23.57754162
422 2 11.81310266 4.54686534 23.57754162
423 2 11.81310266 9.09373067 23.57754162
424 2 11.81310266 13.64059601 23.57754162
425 2 11.81310266 18.18746134 23.57754162
426 2 11.81310266 22.73432668 23.57754162
427 2 14.43823659 0.00000000 23.57754162
428 1 14.43823659 4.54686534 23.57754162
429 2 14.43823659 9.09373067 23.57754162
430 1 14.43823659 13.64059601 23.57754162
431 2 14.43823659 18.18746134 23.57754162
432 1 14.43823659 22.73432668 23.57754162
