LAMMPS (10 Sep 2025)
  using 8 OpenMP thread(s) per MPI task
Loaded 1 plugins from C:\Users\kumar\AppData\Local\LAMMPS 64-bit 10Sep2025\plugins
using multi-threaded neighbor list subroutines
Reading data file ...
  orthogonal box = (0 0 0) to (15.581098 26.987253 25.443826)
  1 by 1 by 1 MPI processor grid
  reading atoms ...
  432 atoms
  read_data CPU = 0.004 seconds
=== STAGE 1: Energy Minimization ===
Switching to 'neigh_modify every 1 delay 0 check yes' setting during minimization
No /omp style for force computation currently active
Neighbor list info ...
  update: every = 1 steps, delay = 0 steps, check = yes
  max neighbors/atom: 4000, page size: 100000
  master list distance cutoff = 8
  ghost atom cutoff = 8
  binsize = 4, bins = 4 7 7
  2 neighbor lists, perpetual/occasional/extra = 2 0 0
  (1) pair meam, perpetual
      attributes: full, newton on, omp
      pair build: full/bin/atomonly/omp
      stencil: full/bin/3d
      bin: standard
  (2) pair meam, perpetual, half/full from (1)
      attributes: half, newton on, omp
      pair build: halffull/newton/omp
      stencil: none
      bin: none
Setting up cg style minimization ...
  Unit style    : metal
  Current step  : 0
Per MPI rank memory allocation (min/avg/max) = 19.38 | 19.38 | 19.38 Mbytes
   Step          Temp          PotEng         KinEng         TotEng         Press          Volume           Lx             Ly             Lz      
         0   0             -1244.5167      0             -1244.5167     -81265.811      10698.901      15.581098      26.987253      25.443826    
       153   0             -1537.3539      0             -1537.3539     -68542.827      10698.901      15.581098      26.987253      25.443826    
Loop time of 2.55644 on 8 procs for 153 steps with 432 atoms

102.7% CPU use with 1 MPI tasks x 8 OpenMP threads

Minimization stats:
  Stopping criterion = energy tolerance
  Energy initial, next-to-last, final = 
     -1244.51666637388   -1537.3538723702  -1537.35389707793
  Force two-norm initial, final = 28.339406 6.5618861
  Force max component initial, final = 3.7725464 2.4133763
  Final line search alpha, max atom move = 0.050758069 0.12249832
  Iterations, force evaluations = 153 397

MPI task timing breakdown:
Section |  min time  |  avg time  |  max time  |%varavg| %total
---------------------------------------------------------------
Pair    | 2.4844     | 2.4844     | 2.4844     |   0.0 | 97.18
Neigh   | 0.001972   | 0.001972   | 0.001972   |   0.0 |  0.08
Comm    | 0.004977   | 0.004977   | 0.004977   |   0.0 |  0.19
Output  | 0          | 0          | 0          |   0.0 |  0.00
Modify  | 0.058673   | 0.058673   | 0.058673   |   0.0 |  2.30
Other   |            | 0.006411   |            |       |  0.25

Nlocal:            432 ave         432 max         432 min
Histogram: 1 0 0 0 0 0 0 0 0 0
Nghost:           1836 ave        1836 max        1836 min
Histogram: 1 0 0 0 0 0 0 0 0 0
Neighs:          18672 ave       18672 max       18672 min
Histogram: 1 0 0 0 0 0 0 0 0 0
FullNghs:        37344 ave       37344 max       37344 min
Histogram: 1 0 0 0 0 0 0 0 0 0

Total # of neighbors = 37344
Ave neighs/atom = 86.444444
Neighbor list builds = 3
Dangerous builds = 0
Minimized PE/atom: -3.55868957656927 eV/atom
=== STAGE 2: NPT Equilibration at 650 K ===
No /omp style for force computation currently active
Setting up Verlet run ...
  Unit style    : metal
  Current step  : 0
  Time step     : 0.002
Per MPI rank memory allocation (min/avg/max) = 18.27 | 18.27 | 18.27 Mbytes
   Step          Temp          PotEng         KinEng         TotEng         Press          Volume           Lx             Ly             Lz      
         0   650           -1537.3539      36.21223      -1501.1417     -64927.603      10698.901      15.581098      26.987253      25.443826    
       500   1035.8553     -1735.7607      57.70866      -1678.0521     -4164.0613      6527.1476      13.214766      22.888646      21.579623    
      1000   642.28422     -1799.8683      35.782375     -1764.0859     -1013.1935      6057.6593      12.890011      22.326154      21.0493      
      1500   680.92384     -1804.7061      37.935032     -1766.7711      110.37834      6022.9679      12.865357      22.283453      21.009041    
      2000   634.80587     -1814.274       35.365748     -1778.9082     -2786.655       5973.0217      12.829696      22.221685      20.950806    
      2500   648.19481     -1821.6592      36.11166      -1785.5475      4705.914       5880.0398      12.762774      22.105774      20.841523    
      3000   658.23998     -1822.584       36.671288     -1785.9127     -3310.7448      5920.7801      12.792183      22.15671       20.889547    
      3500   649.97384     -1824.6881      36.210772     -1788.4773      9120.3112      5846.3292      12.738338      22.063448      20.801618    
      4000   610.45243     -1828.9853      34.00899      -1794.9764     -3855.6806      5895.2553      12.773773      22.124825      20.859485    
      4500   629.13356     -1830.6254      35.049737     -1795.5756     -616.4952       5892.7446      12.77196       22.121683      20.856523    
      5000   633.50556     -1831.2007      35.293306     -1795.9074      2908.6749      5846.164       12.738218      22.06324       20.801422    
      5500   655.00495     -1836.8108      36.491061     -1800.3197      6168.6657      5798.1043      12.703216      22.002615      20.744265    
      6000   625.29983     -1832.7772      34.836156     -1797.941      -5001.0678      5891.1396      12.7708        22.119675      20.854629    
      6500   653.6277      -1836.9542      36.414333     -1800.5399      2918.778       5815.8556      12.716167      22.025047      20.765413    
      7000   629.94015     -1835.2252      35.094673     -1800.1305     -4081.9668      5902.3978      12.77893       22.133756      20.867905    
      7500   674.10883     -1835.8298      37.555359     -1798.2744      404.86797      5896.6027      12.774746      22.12651       20.861074    
      8000   637.78873     -1832.1268      35.531926     -1796.5948      2034.1731      5852.7043      12.742966      22.071465      20.809177    
      8500   632.20253     -1834.8172      35.220713     -1799.5965     -2526.9756      5876.1185      12.759937      22.100859      20.836889    
      9000   690.10814     -1837.8096      38.446699     -1799.3629     -3372.3832      5860.4109      12.748557      22.081148      20.818306    
      9500   647.06824     -1836.0348      36.048898     -1799.9859      5229.6153      5831.668       12.72768       22.044989      20.784215    
     10000   662.71132     -1835.4669      36.920392     -1798.5465      3632.0237      5857.4684      12.746423      22.077452      20.814821    
     10500   666.31192     -1837.6607      37.120985     -1800.5398     -2532.035       5869.5626      12.755189      22.092636      20.829137    
     11000   666.71814     -1838.1066      37.143616     -1800.963       4026.7307      5821.6523      12.72039       22.032362      20.77231     
     11500   644.37541     -1838.6991      35.898877     -1802.8002      1511.0249      5836.6691      12.731318      22.051289      20.790155    
     12000   646.17503     -1838.0951      35.999136     -1802.0959     -1402.6978      5846.0588      12.738141      22.063108      20.801298    
     12500   634.12933     -1836.2998      35.328057     -1800.9717      444.35004      5864.1474      12.751266      22.08584       20.82273     
     13000   620.69329     -1837.2408      34.57952      -1802.6613     -201.04881      5841.7003      12.734975      22.057623      20.796127    
     13500   652.10022     -1838.6704      36.329235     -1802.3412     -3015.625       5859.8144      12.748124      22.080399      20.8176      
     14000   643.4497      -1839.8054      35.847305     -1803.9581      4240.7252      5827.3061      12.724506      22.039492      20.779032    
     14500   658.45244     -1842.6788      36.683125     -1805.9957     -2363.7498      5846.1975      12.738242      22.063282      20.801462    
     15000   663.21675     -1840.0613      36.948549     -1803.1127     -3651.5197      5832.035       12.727948      22.045452      20.784651    
     15500   658.10893     -1845.8746      36.663987     -1809.2106     -3997.5262      5833.1715      12.728774      22.046884      20.786001    
     16000   680.10246     -1844.2787      37.889271     -1806.3894      796.05857      5810.2121      12.712052      22.01792       20.758694    
     16500   697.64775     -1843.5272      38.866739     -1804.6604     -2725.1284      5844.2675      12.73684       22.060854      20.799173    
     17000   684.07202     -1844.4096      38.11042      -1806.2992     -2089.421       5843.088       12.735983      22.05937       20.797774    
     17500   669.66776     -1844.9464      37.307942     -1807.6385      1422.6514      5823.8506      12.721991      22.035134      20.774924    
     18000   654.03905     -1847.3659      36.43725      -1810.9286      1825.8541      5806.5742      12.709398      22.013324      20.754361    
     18500   615.97331     -1847.7857      34.316564     -1813.4692     -4799.8675      5839.5742      12.73343       22.054947      20.793604    
     19000   652.52099     -1846.2476      36.352677     -1809.8949     -2581.6229      5813.4177      12.714389      22.021969      20.762511    
     19500   658.82152     -1843.4987      36.703686     -1806.7951      2054.7788      5800.9287      12.705278      22.006187      20.747632    
     20000   685.94171     -1845.4848      38.214583     -1807.2702     -4439.607       5841.7256      12.734993      22.057655      20.796157    
Loop time of 259.382 on 8 procs for 20000 steps with 432 atoms

Performance: 13.324 ns/day, 1.801 hours/ns, 77.106 timesteps/s, 33.310 katom-step/s
96.2% CPU use with 1 MPI tasks x 8 OpenMP threads

MPI task timing breakdown:
Section |  min time  |  avg time  |  max time  |%varavg| %total
---------------------------------------------------------------
Pair    | 235.14     | 235.14     | 235.14     |   0.0 | 90.65
Neigh   | 0.05018    | 0.05018    | 0.05018    |   0.0 |  0.02
Comm    | 0.31432    | 0.31432    | 0.31432    |   0.0 |  0.12
Output  | 0.003889   | 0.003889   | 0.003889   |   0.0 |  0.00
Modify  | 23.804     | 23.804     | 23.804     |   0.0 |  9.18
Other   |            | 0.07252    |            |       |  0.03

Nlocal:            432 ave         432 max         432 min
Histogram: 1 0 0 0 0 0 0 0 0 0
Nghost:           2552 ave        2552 max        2552 min
Histogram: 1 0 0 0 0 0 0 0 0 0
Neighs:          34058 ave       34058 max       34058 min
Histogram: 1 0 0 0 0 0 0 0 0 0
FullNghs:        68116 ave       68116 max       68116 min
Histogram: 1 0 0 0 0 0 0 0 0 0

Total # of neighbors = 68116
Ave neighs/atom = 157.67593
Neighbor list builds = 62
Dangerous builds = 0
=== STAGE 3: NPT Production at 650 K ===
No /omp style for force computation currently active
Setting up Verlet run ...
  Unit style    : metal
  Current step  : 0
  Time step     : 0.001
Per MPI rank memory allocation (min/avg/max) = 18.62 | 18.62 | 18.62 Mbytes
   Step          Temp          PotEng         KinEng         TotEng         Press          Volume           Lx             Ly             Lz      
         0   685.94171     -1845.4848      38.214583     -1807.2702     -4439.607       5841.7256      12.734993      22.057655      20.796157    
       500   668.62995     -1846.3196      37.250125     -1809.0695      1779.8818      5806.3785      12.709256      22.013077      20.754128    
      1000   643.37655     -1844.1714      35.84323      -1808.3282     -1825.0523      5849.9698      12.740981      22.068027      20.805935    
      1500   656.40601     -1842.4381      36.569116     -1805.869      -2400.2359      5840.1734      12.733865      22.055702      20.794315    
      2000   653.58059     -1848.0126      36.411709     -1811.6009     -3004.7337      5818.4018      12.718022      22.02826       20.768443    
      2500   656.42843     -1843.139       36.570364     -1806.5686      4131.4162      5787.4786      12.695451      21.989166      20.731585    
      3000   666.83432     -1845.7485      37.150089     -1808.5984     -1377.2846      5816.3299      12.716512      22.025645      20.765977    
      3500   652.69204     -1846.1531      36.362206     -1809.7909      1444.8648      5775.2143      12.686477      21.973623      20.71693     
      4000   662.45877     -1846.1785      36.906322     -1809.2722      4437.4631      5788.5491      12.696234      21.990522      20.732863    
      4500   672.32004     -1845.2518      37.455704     -1807.7961     -7312.8156      5847.535       12.739213      22.064965      20.803048    
      5000   679.99392     -1844.6817      37.883224     -1806.7984     -3076.6029      5830.7637      12.727023      22.04385       20.783141    
      5500   648.80329     -1841.4612      36.145559     -1805.3157     -7428.2928      5861.0553      12.749024      22.081957      20.819069    
      6000   619.07316     -1844.4229      34.489261     -1809.9336     -1787.7606      5824.3078      12.722324      22.035711      20.775468    
      6500   666.51264     -1847.5319      37.132167     -1810.3997      3935.8746      5786.8537      12.694994      21.988375      20.730839    
      7000   679.04879     -1842.261       37.83057      -1804.4304      5758.9607      5824.0452      12.722132      22.03538       20.775155    
      7500   671.79262     -1844.8423      37.426321     -1807.416       4993.173       5792.1284      12.69885       21.995054      20.737135    
      8000   629.54671     -1846.3701      35.072754     -1811.2974     -1.5037848      5801.3904      12.705615      22.006771      20.748183    
      8500   700.33018     -1840.6569      39.01618      -1801.6407      3394.5169      5788.097       12.695903      21.989949      20.732323    
      9000   642.99402     -1846.9577      35.821918     -1811.1358     -6378.3137      5860.6156      12.748705      22.081405      20.818549    
      9500   632.14881     -1845.7977      35.21772      -1810.58        3371.6332      5786.0747      12.694424      21.987388      20.729908    
     10000   649.20219     -1844.9604      36.167783     -1808.7926      4215.9977      5774.2659      12.685783      21.97242       20.715796    
     10500   654.66751     -1843.7071      36.472262     -1807.2349     -3735.1228      5846.1386      12.738199      22.063208      20.801392    
     11000   670.02873     -1845.7326      37.328053     -1808.4045      9229.0557      5751.109       12.668802      21.943008      20.688066    
     11500   576.29657     -1847.875       32.106129     -1815.7689     -7503.0521      5822.3814      12.720921      22.033281      20.773177    
     12000   640.70578     -1846.6542      35.694438     -1810.9597     -11245.031      5871.4944      12.756589      22.09506       20.831422    
     12500   674.77329     -1845.1624      37.592378     -1807.57       -3599.336       5855.5042      12.744998      22.074984      20.812494    
     13000   690.25707     -1846.7394      38.454996     -1808.2844     -2119.84        5814.9495      12.715506      22.023903      20.764334    
     13500   637.50072     -1846.5891      35.515881     -1811.0732     -5532.2511      5846.7292      12.738628      22.063951      20.802093    
     14000   650.12372     -1846.5625      36.219122     -1810.3434     -3095.0757      5837.6868      12.732058      22.052571      20.791363    
     14500   680.72864     -1846.8221      37.924156     -1808.8979      979.42402      5829.1194      12.725826      22.041778      20.781187    
     15000   673.45157     -1846.3319      37.518743     -1808.8132     -3396.2975      5834.341       12.729625      22.048357      20.78739     
     15500   656.69726     -1845.1039      36.585342     -1808.5186     -578.66509      5830.7923      12.727043      22.043886      20.783175    
     16000   683.19493     -1845.0145      38.061556     -1806.953      -511.22043      5811.9677      12.713332      22.020138      20.760785    
     16500   662.46763     -1846.3877      36.906815     -1809.4809      3955.7124      5821.4413      12.720236      22.032095      20.772059    
     17000   619.92839     -1846.9967      34.536907     -1812.4598      930.10598      5805.5473      12.708649      22.012026      20.753137    
     17500   628.5936      -1845.3748      35.019655     -1810.3552     -712.75777      5802.0131      12.70607       22.007558      20.748925    
     18000   687.90343     -1845.9361      38.323872     -1807.6122     -6122.1039      5885.4864      12.766714      22.112597      20.847956    
     18500   641.8568      -1849.3298      35.758563     -1813.5712      1870.0987      5801.2748      12.705531      22.006625      20.748045    
     19000   628.54249     -1848.2826      35.016808     -1813.2658     -8509.0704      5839.5209      12.733391      22.05488       20.79354     
     19500   685.70037     -1846.0752      38.201137     -1807.8741     -2254.1199      5824.5462      12.722497      22.036012      20.775751    
     20000   642.30669     -1851.3831      35.783627     -1815.5995     -1092.5727      5783.5949      12.692611      21.984247      20.726946    
     20500   639.94704     -1849.9451      35.652168     -1814.2929      972.73046      5776.6097      12.687499      21.975392      20.718599    
     21000   630.27132     -1847.397       35.113123     -1812.2839     -2811.476       5792.862       12.699386      21.995982      20.738011    
     21500   627.64429     -1849.1086      34.966768     -1814.1418      3202.8135      5789.5549      12.696969      21.991796      20.734064    
     22000   625.99659     -1849.801       34.874973     -1814.926       7656.1496      5772.5583      12.684532      21.970254      20.713754    
     22500   653.90034     -1849.1886      36.429522     -1812.7591      5072.1144      5773.8771      12.685498      21.971927      20.715331    
     23000   624.03446     -1849.8011      34.76566      -1815.0354     -1379.7218      5821.1577      12.72003       22.031738      20.771721    
     23500   652.06233     -1851.0877      36.327124     -1814.7606      1938.5466      5772.353       12.684382      21.969993      20.713508    
     24000   670.08753     -1851.851       37.331328     -1814.5196      1945.1164      5808.3328      12.710681      22.015546      20.756456    
     24500   672.19533     -1850.8576      37.448756     -1813.4089     -8287.4719      5835.0636      12.73015       22.049267      20.788249    
     25000   671.46261     -1851.6459      37.407936     -1814.238      -3024.0145      5800.8639      12.705231      22.006105      20.747555    
     25500   684.48614     -1848.7915      38.133491     -1810.658       2606.9107      5793.358       12.699749      21.99661       20.738603    
     26000   661.59552     -1851.3618      36.858229     -1814.5035     -2090.6855      5787.2691      12.695298      21.988901      20.731335    
     26500   609.7177      -1849.1838      33.968057     -1815.2158     -1420.9184      5793.3279      12.699727      21.996572      20.738567    
     27000   671.45527     -1847.267       37.407527     -1809.8595     -2652.5811      5824.5319      12.722487      22.035994      20.775734    
     27500   669.08756     -1849.8758      37.275619     -1812.6001      6993.5446      5748.5183      12.666899      21.939713      20.684959    
     28000   634.61892     -1848.1825      35.355332     -1812.8272      232.1846       5815.2357      12.715715      22.024264      20.764675    
     28500   674.6194      -1849.0574      37.583804     -1811.4736      718.78716      5814.4101      12.715113      22.023222      20.763693    
     29000   617.16861     -1852.9642      34.383156     -1818.581      -1700.9314      5801.741       12.705871      22.007214      20.748601    
     29500   670.26307     -1850.7278      37.341108     -1813.3867      2968.5697      5785.888       12.694288      21.987152      20.729685    
     30000   689.38395     -1848.8728      38.406354     -1810.4665      873.60922      5824.5145      12.722474      22.035972      20.775713    
     30500   637.46519     -1849.9951      35.513901     -1814.4812     -2842.0432      5827.4994      12.724647      22.039735      20.779262    
     31000   674.26316     -1851.1804      37.563958     -1813.6164     -8770.4188      5853.2425      12.743357      22.072141      20.809814    
     31500   642.56582     -1848.7616      35.798063     -1812.9636      2039.1419      5780.7255      12.690511      21.98061       20.723518    
     32000   646.15714     -1850.6447      35.998139     -1814.6466     -5470.215       5815.1528      12.715654      22.024159      20.764577    
     32500   588.89712     -1852.3107      32.80812      -1819.5026      160.4527       5794.6834      12.700717      21.998287      20.740184    
     33000   664.82584     -1850.8733      37.038194     -1813.8351     -1256.7535      5802.1939      12.706202      22.007787      20.749141    
     33500   663.16807     -1849.6837      36.945838     -1812.7378      1495.7913      5809.352       12.711425      22.016834      20.75767     
     34000   695.87278     -1849.5138      38.767854     -1810.7459      9367.8139      5770.2606      12.682849      21.967338      20.711005    
     34500   599.41528     -1850.9048      33.394098     -1817.5107     -8262.4655      5855.2696      12.744828      22.074689      20.812216    
     35000   609.31984     -1849.6435      33.945892     -1815.6977     -1920.9127      5813.3829      12.714364      22.021925      20.76247     
     35500   663.5529      -1850.2364      36.967277     -1813.2692     -185.8185       5797.5572      12.702816      22.001923      20.743612    
     36000   705.26496     -1852.6403      39.291103     -1813.3492     -3761.0397      5817.9299      12.717678      22.027665      20.767881    
     36500   641.3523      -1847.2608      35.730457     -1811.5303      4467.5466      5791.6757      12.698519      21.99448       20.736595    
     37000   707.95643     -1848.6737      39.441047     -1809.2327     -7865.6877      5875.1436      12.759231      22.099636      20.835737    
     37500   687.69624     -1852.3628      38.312329     -1814.0505      3801.7789      5777.8735      12.688424      21.976995      20.720109    
     38000   648.7363      -1851.7761      36.141827     -1815.6343     -1441.531       5810.7231      12.712425      22.018566      20.759303    
     38500   642.96947     -1849.3563      35.820551     -1813.5358     -10069.542      5889.2782      12.769455      22.117345      20.852433    
     39000   689.32828     -1849.566       38.403252     -1811.1628      860.45713      5809.7353      12.711704      22.017318      20.758126    
     39500   596.18577     -1849.6796      33.214178     -1816.4654     -1358.607       5828.8143      12.725604      22.041393      20.780824    
     40000   629.87402     -1851.7986      35.090988     -1816.7076     -1012.2792      5814.6644      12.715298      22.023543      20.763995    
     40500   634.92895     -1851.6506      35.372604     -1816.278       1039.6459      5819.0946      12.718527      22.029135      20.769267    
     41000   647.06582     -1850.8574      36.048763     -1814.8086     -6555.9186      5849.5231      12.740657      22.067465      20.805406    
     41500   673.44857     -1850.9281      37.518576     -1813.4095      6094.8878      5770.7412      12.683201      21.967948      20.71158     
     42000   670.0619      -1850.5664      37.3299       -1813.2365     -6759.8737      5846.4757      12.738444      22.063632      20.801792    
     42500   630.75817     -1852.0827      35.140246     -1816.9425     -5275.7596      5818.1932      12.71787       22.027997      20.768195    
     43000   644.47628     -1852.7073      35.904497     -1816.8028      1756.6476      5806.0232      12.708996      22.012628      20.753704    
     43500   685.56827     -1856.8984      38.193778     -1818.7046     -2143.5615      5778.1886      12.688655      21.977394      20.720486    
     44000   619.0997      -1852.8791      34.490739     -1818.3884     -499.71882      5800.8387      12.705212      22.006074      20.747525    
     44500   609.25786     -1850.2662      33.942439     -1816.3238      368.94281      5806.4937      12.70934       22.013222      20.754265    
     45000   626.20832     -1853.394       34.886768     -1818.5073     -4390.3795      5800.2841      12.704808      22.005372      20.746864    
     45500   645.39803     -1854.1404      35.955849     -1818.1846     -1694.6243      5786.9671      12.695077      21.988518      20.730974    
     46000   732.31345     -1853.2785      40.798005     -1812.4805      2651.1699      5791.8293      12.698631      21.994675      20.736778    
     46500   665.46221     -1857.5306      37.073647     -1820.4569      6995.101       5742.5241      12.662495      21.932084      20.677767    
     47000   629.34098     -1853.2821      35.061293     -1818.2208     -3681.0602      5800.1356      12.704699      22.005184      20.746687    
     47500   630.68415     -1855.9904      35.136122     -1820.8542      3248.1273      5738.5998      12.65961       21.927087      20.673056    
     48000   640.79606     -1856.4188      35.699468     -1820.7194      6.662667       5762.9337      12.677478      21.958037      20.702235    
     48500   650.77314     -1855.0679      36.255302     -1818.8126     -8348.4709      5827.5153      12.724659      22.039755      20.779281    
     49000   602.21542     -1855.1389      33.550097     -1821.5888      877.29761      5786.154       12.694482      21.987489      20.730003    
     49500   692.64857     -1854.4288      38.588229     -1815.8406      7765.3213      5760.1996      12.675473      21.954563      20.698961    
     50000   596.36726     -1854.1213      33.22429      -1820.897       1626.05        5770.9444      12.68335       21.968206      20.711823    
Loop time of 1952.68 on 8 procs for 50000 steps with 432 atoms

Performance: 2.212 ns/day, 10.848 hours/ns, 25.606 timesteps/s, 11.062 katom-step/s
34.0% CPU use with 1 MPI tasks x 8 OpenMP threads

MPI task timing breakdown:
Section |  min time  |  avg time  |  max time  |%varavg| %total
---------------------------------------------------------------
Pair    | 1886.7     | 1886.7     | 1886.7     |   0.0 | 96.62
Neigh   | 0.037358   | 0.037358   | 0.037358   |   0.0 |  0.00
Comm    | 0.82463    | 0.82463    | 0.82463    |   0.0 |  0.04
Output  | 0.009404   | 0.009404   | 0.009404   |   0.0 |  0.00
Modify  | 64.988     | 64.988     | 64.988     |   0.0 |  3.33
Other   |            | 0.169      |            |       |  0.01

Nlocal:            432 ave         432 max         432 min
Histogram: 1 0 0 0 0 0 0 0 0 0
Nghost:           2547 ave        2547 max        2547 min
Histogram: 1 0 0 0 0 0 0 0 0 0
Neighs:          34226 ave       34226 max       34226 min
Histogram: 1 0 0 0 0 0 0 0 0 0
FullNghs:        68452 ave       68452 max       68452 min
Histogram: 1 0 0 0 0 0 0 0 0 0

Total # of neighbors = 68452
Ave neighs/atom = 158.4537
Neighbor list builds = 43
Dangerous builds = 0

=== FINAL RESULTS: HCP at 650 K ===
Atoms: 432 | PE/atom: -4.29356206703432 eV/atom
WARNING: Detected non-ASCII characters in input. Will try to continue by replacing with ASCII equivalents where known. (src/input.cpp:479)
Volume: 5770.94441347612 …³ | Area: 278.630438946283 ²
==========================================
HCP 650 432 -4.29356206703432 5770.94441347612 12.6833496719569 21.9682060459422 20.7118232857132 278.630438946283
Simulation complete!
Total wall time: 0:36:54
