LAMMPS (10 Sep 2025)
  using 8 OpenMP thread(s) per MPI task
Loaded 1 plugins from C:\Users\kumar\AppData\Local\LAMMPS 64-bit 10Sep2025\plugins
using multi-threaded neighbor list subroutines
Reading data file ...
  orthogonal box = (0 0 0) to (22.035 22.035 22.035)
  1 by 1 by 1 MPI processor grid
  reading atoms ...
  864 atoms
  read_data CPU = 0.020 seconds
=== STAGE 1: Energy Minimization ===
Switching to 'neigh_modify every 1 delay 0 check yes' setting during minimization
No /omp style for force computation currently active
Neighbor list info ...
  update: every = 1 steps, delay = 0 steps, check = yes
  max neighbors/atom: 4000, page size: 100000
  master list distance cutoff = 8
  ghost atom cutoff = 8
  binsize = 4, bins = 6 6 6
  2 neighbor lists, perpetual/occasional/extra = 2 0 0
  (1) pair meam, perpetual
      attributes: full, newton on, omp
      pair build: full/bin/atomonly/omp
      stencil: full/bin/3d
      bin: standard
  (2) pair meam, perpetual, half/full from (1)
      attributes: half, newton on, omp
      pair build: halffull/newton/omp
      stencil: none
      bin: none
Setting up cg style minimization ...
  Unit style    : metal
  Current step  : 0
Per MPI rank memory allocation (min/avg/max) = 21.26 | 21.26 | 21.26 Mbytes
   Step          Temp          PotEng         KinEng         TotEng         Press          Volume           Lx             Ly             Lz      
         0   0             -3534.2975      0             -3534.2975      29334.535      10698.901      22.035         22.035         22.035       
        57   0             -3670.4798      0             -3670.4798      32279.056      10698.901      22.035         22.035         22.035       
Loop time of 2.61416 on 8 procs for 57 steps with 864 atoms

99.2% CPU use with 1 MPI tasks x 8 OpenMP threads

Minimization stats:
  Stopping criterion = energy tolerance
  Energy initial, next-to-last, final = 
     -3534.29753049506   -3670.4792830433  -3670.47978910272
  Force two-norm initial, final = 70.133527 8.8421
  Force max component initial, final = 5.3222596 2.2943242
  Final line search alpha, max atom move = 0.05892078 0.13518337
  Iterations, force evaluations = 57 188

MPI task timing breakdown:
Section |  min time  |  avg time  |  max time  |%varavg| %total
---------------------------------------------------------------
Pair    | 2.5675     | 2.5675     | 2.5675     |   0.0 | 98.22
Neigh   | 0          | 0          | 0          |   0.0 |  0.00
Comm    | 0.002574   | 0.002574   | 0.002574   |   0.0 |  0.10
Output  | 0          | 0          | 0          |   0.0 |  0.00
Modify  | 0.041173   | 0.041173   | 0.041173   |   0.0 |  1.57
Other   |            | 0.002915   |            |       |  0.11

Nlocal:            864 ave         864 max         864 min
Histogram: 1 0 0 0 0 0 0 0 0 0
Nghost:           3767 ave        3767 max        3767 min
Histogram: 1 0 0 0 0 0 0 0 0 0
Neighs:          76032 ave       76032 max       76032 min
Histogram: 1 0 0 0 0 0 0 0 0 0
FullNghs:       152064 ave      152064 max      152064 min
Histogram: 1 0 0 0 0 0 0 0 0 0

Total # of neighbors = 152064
Ave neighs/atom = 176
Neighbor list builds = 0
Dangerous builds = 0
Minimized PE/atom: -4.24824049664667 eV/atom
=== STAGE 2: NPT Equilibration at 400 K ===
No /omp style for force computation currently active
Setting up Verlet run ...
  Unit style    : metal
  Current step  : 0
  Time step     : 0.002
Per MPI rank memory allocation (min/avg/max) = 20.14 | 20.14 | 20.14 Mbytes
   Step          Temp          PotEng         KinEng         TotEng         Press          Volume           Lx             Ly             Lz      
         0   400           -3670.4798      44.620602     -3625.8592      36733.724      10698.901      22.035         22.035         22.035       
       500   381.95941     -3633.7366      42.608147     -3591.1284      8454.0877      11192.899      22.369049      22.369049      22.369049    
      1000   380.46289     -3632.0659      42.441209     -3589.6247      1276.3549      11286.812      22.431437      22.431437      22.431437    
      1500   394.06789     -3628.8761      43.958866     -3584.9173      2096.6402      11299.368      22.439752      22.439752      22.439752    
      2000   408.60206     -3627.7106      45.580175     -3582.1304      2574.4703      11295.976      22.437507      22.437507      22.437507    
      2500   395.73527     -3629.5605      44.144866     -3585.4156      1921.8402      11333.382      22.462246      22.462246      22.462246    
      3000   397.91426     -3631.3633      44.387935     -3586.9754     -265.1564       11359.397      22.479419      22.479419      22.479419    
      3500   389.40598     -3630.8124      43.438823     -3587.3736     -1532.5247      11374.924      22.489657      22.489657      22.489657    
      4000   383.75066     -3630.2691      42.807964     -3587.4611     -2217.3359      11368.284      22.48528       22.48528       22.48528     
      4500   404.92655     -3629.9392      45.170167     -3584.769      -1581.9886      11372.754      22.488227      22.488227      22.488227    
      5000   406.10887     -3630.1819      45.302056     -3584.8799      938.97706      11356.736      22.477664      22.477664      22.477664    
      5500   399.33718     -3631.3455      44.546663     -3586.7988      823.2546       11348.18       22.472018      22.472018      22.472018    
      6000   389.83857     -3630.5201      43.487079     -3587.033       4321.2204      11313.585      22.449159      22.449159      22.449159    
      6500   400.56131     -3630.3301      44.683217     -3585.6469     -750.4214       11379.702      22.492806      22.492806      22.492806    
      7000   400.66773     -3632.8794      44.695089     -3588.1843     -1405.5573      11370.852      22.486973      22.486973      22.486973    
      7500   386.6628      -3632.8124      43.132817     -3589.6796      714.25791      11373.505      22.488722      22.488722      22.488722    
      8000   398.89403     -3629.7081      44.49723      -3585.2108      1263.8974      11370.99       22.487064      22.487064      22.487064    
      8500   406.51853     -3631.7858      45.347754     -3586.438       1875.7449      11351.74       22.474368      22.474368      22.474368    
      9000   381.14365     -3631.4957      42.517148     -3588.9785     -2440.1136      11356.49       22.477502      22.477502      22.477502    
      9500   393.92676     -3634.1287      43.943124     -3590.1856      1902.8139      11326.215      22.45751       22.45751       22.45751     
     10000   394.76141     -3631.0143      44.03623      -3586.978       3293.8602      11315.177      22.450212      22.450212      22.450212    
     10500   405.49994     -3631.0383      45.234129     -3585.8041      1374.8686      11338.008      22.465302      22.465302      22.465302    
     11000   426.11619     -3633.2893      47.533902     -3585.7554      2862.4016      11324.617      22.456453      22.456453      22.456453    
     11500   385.78749     -3631.2937      43.035175     -3588.2585      862.24702      11389.642      22.499353      22.499353      22.499353    
     12000   404.90919     -3632.8369      45.16823      -3587.6687     -386.40688      11379.139      22.492434      22.492434      22.492434    
     12500   414.08442     -3631.4588      46.191741     -3585.2671     -1805.4752      11392.951      22.501531      22.501531      22.501531    
     13000   398.16935     -3632.0925      44.41639      -3587.6761     -925.27094      11375.805      22.490238      22.490238      22.490238    
     13500   391.08741     -3631.9219      43.626389     -3588.2956      4088.8553      11349.223      22.472706      22.472706      22.472706    
     14000   399.74333     -3634.9829      44.59197      -3590.3909     -954.23159      11373.92       22.488995      22.488995      22.488995    
     14500   406.12855     -3633.3687      45.304251     -3588.0645      1517.5175      11359.681      22.479607      22.479607      22.479607    
     15000   406.97602     -3631.3639      45.398788     -3585.9651      345.89804      11392.367      22.501147      22.501147      22.501147    
     15500   384.19333     -3630.1267      42.857345     -3587.2693      2583.7421      11333.49       22.462317      22.462317      22.462317    
     16000   395.2639      -3633.9946      44.092283     -3589.9023      559.94463      11364.433      22.482741      22.482741      22.482741    
     16500   394.96474     -3633.0919      44.058911     -3589.033      -2422.046       11425.716      22.523082      22.523082      22.523082    
     17000   427.68406     -3632.4187      47.708801     -3584.7099      1434.8712      11376.734      22.49085       22.49085       22.49085     
     17500   398.53123     -3630.9154      44.456759     -3586.4587     -1311.023       11386.094      22.497016      22.497016      22.497016    
     18000   382.37783     -3631.4762      42.654822     -3588.8214     -1960.4021      11396.212      22.503678      22.503678      22.503678    
     18500   389.6523      -3631.7936      43.466301     -3588.3273     -2092.8902      11421.575      22.52036       22.52036       22.52036     
     19000   406.35022     -3631.1452      45.328979     -3585.8162      869.98785      11392.951      22.501531      22.501531      22.501531    
     19500   394.37168     -3629.4638      43.992754     -3585.471       3721.6976      11360.929      22.48043       22.48043       22.48043     
     20000   396.11257     -3631.3286      44.186954     -3587.1417      3651.324       11343.548      22.46896       22.46896       22.46896     
Loop time of 341.302 on 8 procs for 20000 steps with 864 atoms

Performance: 10.126 ns/day, 2.370 hours/ns, 58.599 timesteps/s, 50.630 katom-step/s
91.8% CPU use with 1 MPI tasks x 8 OpenMP threads

MPI task timing breakdown:
Section |  min time  |  avg time  |  max time  |%varavg| %total
---------------------------------------------------------------
Pair    | 303.61     | 303.61     | 303.61     |   0.0 | 88.96
Neigh   | 0.006675   | 0.006675   | 0.006675   |   0.0 |  0.00
Comm    | 0.27206    | 0.27206    | 0.27206    |   0.0 |  0.08
Output  | 0.004226   | 0.004226   | 0.004226   |   0.0 |  0.00
Modify  | 37.348     | 37.348     | 37.348     |   0.0 | 10.94
Other   |            | 0.06472    |            |       |  0.02

Nlocal:            864 ave         864 max         864 min
Histogram: 1 0 0 0 0 0 0 0 0 0
Nghost:           3722 ave        3722 max        3722 min
Histogram: 1 0 0 0 0 0 0 0 0 0
Neighs:          69844 ave       69844 max       69844 min
Histogram: 1 0 0 0 0 0 0 0 0 0
FullNghs:       139688 ave      139688 max      139688 min
Histogram: 1 0 0 0 0 0 0 0 0 0

Total # of neighbors = 139688
Ave neighs/atom = 161.67593
Neighbor list builds = 4
Dangerous builds = 0
=== STAGE 3: NPT Production at 400 K ===
No /omp style for force computation currently active
Setting up Verlet run ...
  Unit style    : metal
  Current step  : 0
  Time step     : 0.001
Per MPI rank memory allocation (min/avg/max) = 20.14 | 20.14 | 20.14 Mbytes
   Step          Temp          PotEng         KinEng         TotEng         Press          Volume           Lx             Ly             Lz      
         0   396.11257     -3631.3286      44.186954     -3587.1417      3651.324       11343.548      22.46896       22.46896       22.46896     
       500   407.96085     -3632.8827      45.508647     -3587.3741     -1893.0531      11390.214      22.499729      22.499729      22.499729    
      1000   413.24322     -3635.5088      46.097903     -3589.4109      4037.3923      11355.023      22.476534      22.476534      22.476534    
      1500   385.16407     -3634.1708      42.965632     -3591.2051      2252.3475      11332.798      22.46186       22.46186       22.46186     
      2000   398.20603     -3634.9693      44.420482     -3590.5488     -2145.6625      11350.923      22.473828      22.473828      22.473828    
      2500   400.66401     -3634.6262      44.694674     -3589.9315     -1827.8238      11386.147      22.497051      22.497051      22.497051    
      3000   408.9848      -3633.3344      45.622871     -3587.7115     -1962.1332      11375.803      22.490236      22.490236      22.490236    
      3500   415.49614     -3632.4837      46.34922      -3586.1345     -4932.005       11454.462      22.541954      22.541954      22.541954    
      4000   395.96626     -3633.2445      44.170633     -3589.0739     -1442.134       11417.68       22.5178        22.5178        22.5178      
      4500   392.35895     -3633.0382      43.768231     -3589.2699     -1580.4028      11375.461      22.490011      22.490011      22.490011    
      5000   411.34877     -3632.8581      45.886574     -3586.9715     -1836.6526      11392.978      22.501549      22.501549      22.501549    
      5500   412.8736      -3634.7649      46.056671     -3588.7082      1169.401       11375.316      22.489915      22.489915      22.489915    
      6000   410.97275     -3634.6531      45.844628     -3588.8084      3421.2835      11321.008      22.454068      22.454068      22.454068    
      6500   408.79138     -3631.249       45.601294     -3585.6477      480.45689      11383.204      22.495113      22.495113      22.495113    
      7000   416.06607     -3633.6307      46.412797     -3587.2179     -532.4375       11380.829      22.493548      22.493548      22.493548    
      7500   392.50282     -3634.762       43.78428      -3590.9777     -471.84453      11381.172      22.493774      22.493774      22.493774    
      8000   393.40413     -3633.1562      43.884823     -3589.2714     -3262.6524      11414.738      22.515866      22.515866      22.515866    
      8500   397.54704     -3634.0535      44.346971     -3589.7065      1254.0877      11364.014      22.482465      22.482465      22.482465    
      9000   414.62319     -3636.6893      46.251841     -3590.4375     -1005.1946      11365.901      22.483709      22.483709      22.483709    
      9500   393.37073     -3632.3209      43.881097     -3588.4398     -4384.5477      11418.63       22.518424      22.518424      22.518424    
     10000   406.3306      -3633.8761      45.326789     -3588.5493      1096.2453      11346.398      22.470842      22.470842      22.470842    
     10500   393.71129     -3632.5525      43.919087     -3588.6334      1606.5984      11353.814      22.475736      22.475736      22.475736    
     11000   391.48138     -3634.6373      43.670337     -3590.9669     -2668.3366      11382.581      22.494702      22.494702      22.494702    
     11500   404.04251     -3637.0511      45.07155      -3591.9795     -1005.2884      11380.798      22.493528      22.493528      22.493528    
     12000   415.25802     -3634.1812      46.322657     -3587.8585      5054.6242      11325.37       22.456951      22.456951      22.456951    
     12500   411.30514     -3634.4552      45.881707     -3588.5735      1734.1194      11354.914      22.476462      22.476462      22.476462    
     13000   407.30328     -3634.9196      45.435294     -3589.4843      2131.1972      11381.718      22.494134      22.494134      22.494134    
     13500   390.74316     -3636.1007      43.587988     -3592.5127      2131.7892      11333.655      22.462426      22.462426      22.462426    
     14000   399.19418     -3632.8013      44.530711     -3588.2706     -918.7141       11398.972      22.505494      22.505494      22.505494    
     14500   403.69275     -3632.0013      45.032534     -3586.9688     -7490.0866      11462.951      22.547522      22.547522      22.547522    
     15000   420.39655     -3635.7132      46.895868     -3588.8173     -1486.2723      11384.193      22.495764      22.495764      22.495764    
     15500   415.01597     -3632.0769      46.295656     -3585.7812      4616.1855      11349.505      22.472892      22.472892      22.472892    
     16000   418.24117     -3634.0215      46.655432     -3587.366      -907.09999      11365.128      22.4832        22.4832        22.4832      
     16500   393.58569     -3635.1722      43.905076     -3591.2671      4465.4813      11346.596      22.470972      22.470972      22.470972    
     17000   388.08767     -3634.0587      43.291764     -3590.767      -1570.9125      11385.266      22.496471      22.496471      22.496471    
     17500   382.54434     -3633.5072      42.673397     -3590.8338      1303.135       11338.453      22.465596      22.465596      22.465596    
     18000   427.19306     -3632.318       47.654029     -3584.664       3676.0541      11317.368      22.451661      22.451661      22.451661    
     18500   395.00632     -3634.3913      44.063549     -3590.3278      1201.1292      11350.896      22.47381       22.47381       22.47381     
     19000   402.53706     -3634.5332      44.903615     -3589.6295      820.43245      11375.155      22.489809      22.489809      22.489809    
     19500   404.38392     -3632.9316      45.109635     -3587.822       6096.6023      11318.757      22.452579      22.452579      22.452579    
     20000   399.22891     -3633.2762      44.534585     -3588.7417     -1360.0133      11371.634      22.487489      22.487489      22.487489    
     20500   396.04557     -3632.8367      44.17948      -3588.6572      1367.9007      11349.392      22.472818      22.472818      22.472818    
     21000   410.81384     -3632.9448      45.826902     -3587.1179     -149.1835       11342.782      22.468454      22.468454      22.468454    
     21500   390.01545     -3633.484       43.50681      -3589.9772      2788.6154      11335.585      22.463701      22.463701      22.463701    
     22000   407.13311     -3632.5885      45.416311     -3587.1722      321.39921      11392.074      22.500954      22.500954      22.500954    
     22500   410.21535     -3633.102       45.760139     -3587.3418     -636.0735       11382.085      22.494376      22.494376      22.494376    
     23000   395.09054     -3633.5646      44.072945     -3589.4917      1151.5712      11380.329      22.493219      22.493219      22.493219    
     23500   394.78332     -3635.2901      44.038673     -3591.2514     -3757.6696      11422.541      22.520995      22.520995      22.520995    
     24000   410.0824      -3634.4944      45.745309     -3588.7491      630.23889      11393.842      22.502118      22.502118      22.502118    
     24500   400.52665     -3632.6952      44.67935      -3588.0158      944.68823      11409.835      22.512641      22.512641      22.512641    
     25000   404.3026      -3633.1106      45.100563     -3588.0101     -579.27992      11404.185      22.508925      22.508925      22.508925    
     25500   385.01427     -3632.0195      42.948921     -3589.0706     -511.71063      11416.37       22.516939      22.516939      22.516939    
     26000   379.03528     -3635.4812      42.281956     -3593.1993     -1726.3741      11409.495      22.512418      22.512418      22.512418    
     26500   401.04662     -3632.239       44.737354     -3587.5017     -5610.5274      11432.211      22.527348      22.527348      22.527348    
     27000   407.93834     -3633.2048      45.506136     -3587.6987      1370.3436      11373.246      22.488551      22.488551      22.488551    
     27500   389.62209     -3634.6516      43.462931     -3591.1887     -2433.8818      11417.536      22.517705      22.517705      22.517705    
     28000   391.85035     -3635.427       43.711496     -3591.7155     -4965.9519      11418.982      22.518656      22.518656      22.518656    
     28500   393.51028     -3635.1248      43.896664     -3591.2281     -2854.2443      11410.885      22.513332      22.513332      22.513332    
     29000   397.96506     -3633.9307      44.393601     -3589.5371      3013.0885      11374.747      22.48954       22.48954       22.48954     
     29500   382.56002     -3634.07        42.675146     -3591.3949      1040.0614      11377.328      22.491241      22.491241      22.491241    
     30000   385.51374     -3633.6797      43.004638     -3590.675      -1702.2362      11414.844      22.515935      22.515935      22.515935    
     30500   412.71434     -3633.9409      46.038906     -3587.902       3220.2493      11352.965      22.475176      22.475176      22.475176    
     31000   404.57574     -3634.0222      45.131033     -3588.8912     -643.35121      11396.958      22.504169      22.504169      22.504169    
     31500   390.35692     -3635.0835      43.544902     -3591.5386     -668.7469       11393.297      22.501759      22.501759      22.501759    
     32000   386.24121     -3633.8878      43.085789     -3590.802       2251.3293      11378.444      22.491977      22.491977      22.491977    
     32500   427.84206     -3635.3929      47.726426     -3587.6665      3.6480649      11388.205      22.498407      22.498407      22.498407    
     33000   410.9468      -3632.5575      45.841734     -3586.7158      1006.3087      11429.404      22.525504      22.525504      22.525504    
     33500   388.71239     -3632.9454      43.361452     -3589.5839      1626.4366      11372.075      22.487779      22.487779      22.487779    
     34000   409.80567     -3633.6453      45.714439     -3587.9308      4805.8146      11367.198      22.484564      22.484564      22.484564    
     34500   414.13299     -3634.4453      46.197158     -3588.2482     -1651.5574      11438.271      22.531328      22.531328      22.531328    
     35000   402.85643     -3634.4132      44.939241     -3589.4739      583.62888      11379.045      22.492373      22.492373      22.492373    
     35500   392.90245     -3635.6065      43.82886      -3591.7777     -900.98975      11420.744      22.519814      22.519814      22.519814    
     36000   377.28926     -3633.4041      42.087185     -3591.3169      1628.2794      11379.924      22.492952      22.492952      22.492952    
     36500   390.25915     -3633.0998      43.533996     -3589.5658     -1512.333       11441.225      22.533268      22.533268      22.533268    
     37000   397.4906      -3631.6371      44.340675     -3587.2964      1095.6018      11406.029      22.510138      22.510138      22.510138    
     37500   400.07285     -3633.3215      44.628729     -3588.6928     -602.32931      11399.581      22.505896      22.505896      22.505896    
     38000   414.4876      -3635.5255      46.236715     -3589.2888      3113.165       11394.418      22.502497      22.502497      22.502497    
     38500   393.47926     -3635.2597      43.893204     -3591.3665     -3136.3323      11436.444      22.530129      22.530129      22.530129    
     39000   401.34718     -3637.7062      44.770882     -3592.9353     -40.89867       11428.257      22.524751      22.524751      22.524751    
     39500   392.1335      -3633.405       43.743082     -3589.6619      546.8231       11413.545      22.515081      22.515081      22.515081    
     40000   401.2732      -3634.3874      44.76263      -3589.6248     -3571.5937      11432.019      22.527222      22.527222      22.527222    
     40500   380.29716     -3634.8207      42.42272      -3592.398       2035.343       11371.083      22.487126      22.487126      22.487126    
     41000   405.63903     -3635.9259      45.249644     -3590.6763     -2654.4962      11437.084      22.530549      22.530549      22.530549    
     41500   395.93985     -3632.1766      44.167686     -3588.0089      2365.4038      11397.19       22.504322      22.504322      22.504322    
     42000   413.37511     -3632.8373      46.112616     -3586.7247     -5548.0877      11467.323      22.550388      22.550388      22.550388    
     42500   416.8162      -3634.8332      46.496474     -3588.3367      769.2391       11419.743      22.519156      22.519156      22.519156    
     43000   405.01654     -3634.9734      45.180204     -3589.7932     -455.77264      11417.732      22.517834      22.517834      22.517834    
     43500   387.42086     -3634.5421      43.21738      -3591.3247      1197.5771      11419.877      22.519244      22.519244      22.519244    
     44000   401.1126      -3636.1542      44.744714     -3591.4095     -1879.4099      11428.846      22.525138      22.525138      22.525138    
     44500   402.85956     -3635.7375      44.93959      -3590.7979     -951.69523      11421.877      22.520559      22.520559      22.520559    
     45000   408.85565     -3632.4658      45.608463     -3586.8574     -1377.4578      11450.376      22.539274      22.539274      22.539274    
     45500   412.82085     -3634.7752      46.050788     -3588.7245     -2200.7584      11436.08       22.529889      22.529889      22.529889    
     46000   397.90333     -3633.9223      44.386716     -3589.5356     -1369.0635      11451.001      22.539684      22.539684      22.539684    
     46500   389.32749     -3634.77        43.430067     -3591.34       -1416.5294      11424.387      22.522208      22.522208      22.522208    
     47000   406.74843     -3636.7936      45.373399     -3591.4202      1586.116       11399.914      22.506114      22.506114      22.506114    
     47500   395.6855      -3635.1722      44.139313     -3591.0329      5663.3242      11372.778      22.488243      22.488243      22.488243    
     48000   380.5647      -3635.8414      42.452566     -3593.3889     -1554.2487      11425.013      22.52262       22.52262       22.52262     
     48500   399.24511     -3634.9081      44.536393     -3590.3717      172.48958      11399.704      22.505976      22.505976      22.505976    
     49000   405.86226     -3633.7138      45.274547     -3588.4393     -332.72094      11430.96       22.526527      22.526527      22.526527    
     49500   407.20461     -3633.5331      45.424287     -3588.1088      2836.8126      11394.712      22.502691      22.502691      22.502691    
     50000   398.95237     -3636.0509      44.503737     -3591.5472     -1642.7734      11408.629      22.511848      22.511848      22.511848    
Loop time of 818.133 on 8 procs for 50000 steps with 864 atoms

Performance: 5.280 ns/day, 4.545 hours/ns, 61.115 timesteps/s, 52.803 katom-step/s
91.8% CPU use with 1 MPI tasks x 8 OpenMP threads

MPI task timing breakdown:
Section |  min time  |  avg time  |  max time  |%varavg| %total
---------------------------------------------------------------
Pair    | 738.51     | 738.51     | 738.51     |   0.0 | 90.27
Neigh   | 0.009434   | 0.009434   | 0.009434   |   0.0 |  0.00
Comm    | 0.71227    | 0.71227    | 0.71227    |   0.0 |  0.09
Output  | 0.006692   | 0.006692   | 0.006692   |   0.0 |  0.00
Modify  | 78.743     | 78.743     | 78.743     |   0.0 |  9.62
Other   |            | 0.1567     |            |       |  0.02

Nlocal:            864 ave         864 max         864 min
Histogram: 1 0 0 0 0 0 0 0 0 0
Nghost:           3707 ave        3707 max        3707 min
Histogram: 1 0 0 0 0 0 0 0 0 0
Neighs:          69763 ave       69763 max       69763 min
Histogram: 1 0 0 0 0 0 0 0 0 0
FullNghs:       139526 ave      139526 max      139526 min
Histogram: 1 0 0 0 0 0 0 0 0 0

Total # of neighbors = 139526
Ave neighs/atom = 161.48843
Neighbor list builds = 7
Dangerous builds = 0

=== FINAL RESULTS: FCC at 400 K ===
Atoms: 864 | PE/atom: -4.2072493054545 eV/atom
WARNING: Detected non-ASCII characters in input. Will try to continue by replacing with ASCII equivalents where known. (src/input.cpp:479)
Volume: 11408.628735603 …³ | Area: 506.783303591791 ²
==========================================
FCC 400 864 -4.2072493054545 11408.628735603 22.5118480714443 22.5118480714443 22.5118480714443 506.783303591791
Simulation complete!
Total wall time: 0:19:22
