LAMMPS (10 Sep 2025)
  using 8 OpenMP thread(s) per MPI task
Loaded 1 plugins from C:\Users\kumar\AppData\Local\LAMMPS 64-bit 10Sep2025\plugins
using multi-threaded neighbor list subroutines
Reading data file ...
  orthogonal box = (0 0 0) to (22.035 22.035 22.035)
  1 by 1 by 1 MPI processor grid
  reading atoms ...
  864 atoms
  read_data CPU = 0.003 seconds
=== STAGE 1: Energy Minimization ===
Switching to 'neigh_modify every 1 delay 0 check yes' setting during minimization
No /omp style for force computation currently active
Neighbor list info ...
  update: every = 1 steps, delay = 0 steps, check = yes
  max neighbors/atom: 4000, page size: 100000
  master list distance cutoff = 8
  ghost atom cutoff = 8
  binsize = 4, bins = 6 6 6
  2 neighbor lists, perpetual/occasional/extra = 2 0 0
  (1) pair meam, perpetual
      attributes: full, newton on, omp
      pair build: full/bin/atomonly/omp
      stencil: full/bin/3d
      bin: standard
  (2) pair meam, perpetual, half/full from (1)
      attributes: half, newton on, omp
      pair build: halffull/newton/omp
      stencil: none
      bin: none
Setting up cg style minimization ...
  Unit style    : metal
  Current step  : 0
Per MPI rank memory allocation (min/avg/max) = 21.26 | 21.26 | 21.26 Mbytes
   Step          Temp          PotEng         KinEng         TotEng         Press          Volume           Lx             Ly             Lz      
         0   0             -3534.2975      0             -3534.2975      29334.535      10698.901      22.035         22.035         22.035       
        57   0             -3670.4798      0             -3670.4798      32279.056      10698.901      22.035         22.035         22.035       
Loop time of 2.97963 on 8 procs for 57 steps with 864 atoms

96.0% CPU use with 1 MPI tasks x 8 OpenMP threads

Minimization stats:
  Stopping criterion = energy tolerance
  Energy initial, next-to-last, final = 
     -3534.29753049506   -3670.4792830433  -3670.47978910272
  Force two-norm initial, final = 70.133527 8.8421
  Force max component initial, final = 5.3222596 2.2943242
  Final line search alpha, max atom move = 0.05892078 0.13518337
  Iterations, force evaluations = 57 188

MPI task timing breakdown:
Section |  min time  |  avg time  |  max time  |%varavg| %total
---------------------------------------------------------------
Pair    | 2.9328     | 2.9328     | 2.9328     |   0.0 | 98.43
Neigh   | 0          | 0          | 0          |   0.0 |  0.00
Comm    | 0.002958   | 0.002958   | 0.002958   |   0.0 |  0.10
Output  | 0          | 0          | 0          |   0.0 |  0.00
Modify  | 0.041231   | 0.041231   | 0.041231   |   0.0 |  1.38
Other   |            | 0.002669   |            |       |  0.09

Nlocal:            864 ave         864 max         864 min
Histogram: 1 0 0 0 0 0 0 0 0 0
Nghost:           3767 ave        3767 max        3767 min
Histogram: 1 0 0 0 0 0 0 0 0 0
Neighs:          76032 ave       76032 max       76032 min
Histogram: 1 0 0 0 0 0 0 0 0 0
FullNghs:       152064 ave      152064 max      152064 min
Histogram: 1 0 0 0 0 0 0 0 0 0

Total # of neighbors = 152064
Ave neighs/atom = 176
Neighbor list builds = 0
Dangerous builds = 0
Minimized PE/atom: -4.24824049664667 eV/atom
=== STAGE 2: NPT Equilibration at 200 K ===
No /omp style for force computation currently active
Setting up Verlet run ...
  Unit style    : metal
  Current step  : 0
  Time step     : 0.002
Per MPI rank memory allocation (min/avg/max) = 20.14 | 20.14 | 20.14 Mbytes
   Step          Temp          PotEng         KinEng         TotEng         Press          Volume           Lx             Ly             Lz      
         0   200           -3670.4798      22.310301     -3648.1695      34506.39       10698.901      22.035         22.035         22.035       
       500   199.14048     -3654.7529      22.21442      -3632.5385      981.81644      11159.845      22.347008      22.347008      22.347008    
      1000   189.50933     -3655.902       21.14005      -3634.762       1520.0583      11151.727      22.341588      22.341588      22.341588    
      1500   205.93146     -3656.3824      22.971965     -3633.4105     -2929.2452      11207.719      22.378918      22.378918      22.378918    
      2000   198.42593     -3654.3248      22.134711     -3632.1901     -2410.622       11211.627      22.381518      22.381518      22.381518    
      2500   201.50865     -3654.7716      22.478593     -3632.293      -246.03891      11181.656      22.361557      22.361557      22.361557    
      3000   198.90188     -3655.7484      22.187805     -3633.5606      947.31318      11158.474      22.346093      22.346093      22.346093    
      3500   201.65284     -3656.5185      22.494678     -3634.0238      3438.1892      11160.024      22.347128      22.347128      22.347128    
      4000   198.34048     -3656.1161      22.125179     -3633.991       2665.1941      11163.462      22.349422      22.349422      22.349422    
      4500   202.0801      -3655.8545      22.542339     -3633.3122      1817.4317      11149.377      22.340019      22.340019      22.340019    
      5000   198.13808     -3654.8889      22.102601     -3632.7863      1098.1022      11138.159      22.332524      22.332524      22.332524    
      5500   203.14183     -3655.9534      22.660777     -3633.2927     -1304.1541      11188.681      22.366239      22.366239      22.366239    
      6000   190.09656     -3655.6188      21.205557     -3634.4132     -1646.9518      11196.294      22.371311      22.371311      22.371311    
      6500   198.15451     -3655.1818      22.104434     -3633.0774     -813.82689      11193.611      22.369524      22.369524      22.369524    
      7000   204.69291     -3655.4846      22.833802     -3632.6508      1966.3715      11145.632      22.337517      22.337517      22.337517    
      7500   201.08577     -3654.5369      22.43142      -3632.1055      2115.4277      11149.321      22.339981      22.339981      22.339981    
      8000   196.11265     -3655.5984      21.876661     -3633.7217     -194.05074      11161.44       22.348073      22.348073      22.348073    
      8500   195.73194     -3656.0277      21.834193     -3634.1935     -2245.7166      11204.373      22.376691      22.376691      22.376691    
      9000   199.90274     -3655.0696      22.299451     -3632.7701      1997.3912      11177.595      22.358849      22.358849      22.358849    
      9500   194.97008     -3655.3305      21.749205     -3633.5813      997.44942      11180.016      22.360464      22.360464      22.360464    
     10000   195.22493     -3656.1033      21.777635     -3634.3256     -528.26933      11172.629      22.355538      22.355538      22.355538    
     10500   190.32235     -3655.974       21.230745     -3634.7432     -3321.4693      11205.828      22.377659      22.377659      22.377659    
     11000   199.06613     -3655.5423      22.206127     -3633.3362     -1069.6006      11183.352      22.362688      22.362688      22.362688    
     11500   213.20563     -3656.6772      23.783409     -3632.8938      1573.8251      11155.966      22.344418      22.344418      22.344418    
     12000   195.80343     -3656.0884      21.842167     -3634.2462      815.64267      11161.779      22.348299      22.348299      22.348299    
     12500   200.80924     -3655.8216      22.400573     -3633.421       541.17331      11169.886      22.353709      22.353709      22.353709    
     13000   202.82429     -3655.6794      22.625355     -3633.054      -831.24025      11184.513      22.363462      22.363462      22.363462    
     13500   205.19042     -3656.3971      22.8893       -3633.5078     -96.854983      11176.26       22.357959      22.357959      22.357959    
     14000   190.57281     -3656.0617      21.258684     -3634.8031     -1372.7824      11187.975      22.365769      22.365769      22.365769    
     14500   192.83896     -3656.5462      21.511477     -3635.0347     -561.36435      11174.001      22.356453      22.356453      22.356453    
     15000   200.8074      -3656.2367      22.400367     -3633.8364     -805.03297      11190.533      22.367473      22.367473      22.367473    
     15500   196.88033     -3655.6652      21.962297     -3633.7029     -940.68455      11198.956      22.373084      22.373084      22.373084    
     16000   196.61454     -3656.7015      21.932648     -3634.7689      725.37885      11167.759      22.35229       22.35229       22.35229     
     16500   202.46565     -3656.4043      22.585348     -3633.8189      1228.6352      11154.179      22.343226      22.343226      22.343226    
     17000   196.52098     -3655.2368      21.922211     -3633.3146     -75.86073       11191.508      22.368123      22.368123      22.368123    
     17500   212.01596     -3655.4318      23.650699     -3631.7811     -1127.2311      11178.602      22.359521      22.359521      22.359521    
     18000   205.77773     -3655.5099      22.954815     -3632.5551      673.70817      11170.16       22.353891      22.353891      22.353891    
     18500   206.41179     -3656.742       23.025546     -3633.7164      980.12485      11168.171      22.352564      22.352564      22.352564    
     19000   201.47334     -3656.1648      22.474655     -3633.6901      1023.8674      11168.568      22.352829      22.352829      22.352829    
     19500   203.42836     -3654.8263      22.69274      -3632.1336     -994.38043      11189.608      22.366857      22.366857      22.366857    
     20000   208.04207     -3655.6528      23.207406     -3632.4454      1275.9521      11166.588      22.351508      22.351508      22.351508    
Loop time of 345.073 on 8 procs for 20000 steps with 864 atoms

Performance: 10.015 ns/day, 2.396 hours/ns, 57.959 timesteps/s, 50.076 katom-step/s
93.9% CPU use with 1 MPI tasks x 8 OpenMP threads

MPI task timing breakdown:
Section |  min time  |  avg time  |  max time  |%varavg| %total
---------------------------------------------------------------
Pair    | 314.95     | 314.95     | 314.95     |   0.0 | 91.27
Neigh   | 0.001311   | 0.001311   | 0.001311   |   0.0 |  0.00
Comm    | 0.28385    | 0.28385    | 0.28385    |   0.0 |  0.08
Output  | 0.002524   | 0.002524   | 0.002524   |   0.0 |  0.00
Modify  | 29.768     | 29.768     | 29.768     |   0.0 |  8.63
Other   |            | 0.06222    |            |       |  0.02

Nlocal:            864 ave         864 max         864 min
Histogram: 1 0 0 0 0 0 0 0 0 0
Nghost:           3755 ave        3755 max        3755 min
Histogram: 1 0 0 0 0 0 0 0 0 0
Neighs:          71131 ave       71131 max       71131 min
Histogram: 1 0 0 0 0 0 0 0 0 0
FullNghs:       142262 ave      142262 max      142262 min
Histogram: 1 0 0 0 0 0 0 0 0 0

Total # of neighbors = 142262
Ave neighs/atom = 164.65509
Neighbor list builds = 1
Dangerous builds = 0
=== STAGE 3: NPT Production at 200 K ===
No /omp style for force computation currently active
Setting up Verlet run ...
  Unit style    : metal
  Current step  : 0
  Time step     : 0.001
Per MPI rank memory allocation (min/avg/max) = 20.14 | 20.14 | 20.14 Mbytes
   Step          Temp          PotEng         KinEng         TotEng         Press          Volume           Lx             Ly             Lz      
         0   208.04207     -3655.6528      23.207406     -3632.4454      1275.9521      11166.588      22.351508      22.351508      22.351508    
       500   201.83738     -3656.2142      22.515264     -3633.699       492.33983      11172.94       22.355746      22.355746      22.355746    
      1000   195.46961     -3656.7421      21.80493      -3634.9372      401.03351      11159.725      22.346928      22.346928      22.346928    
      1500   192.07682     -3656.1237      21.426459     -3634.6972     -741.1617       11184.822      22.363668      22.363668      22.363668    
      2000   197.81892     -3655.4671      22.066998     -3633.4001      1627.0889      11144.797      22.336959      22.336959      22.336959    
      2500   199.90422     -3655.3948      22.299617     -3633.0951      777.02055      11168.491      22.352778      22.352778      22.352778    
      3000   204.62495     -3655.179       22.826221     -3632.3527     -854.42966      11197.474      22.372097      22.372097      22.372097    
      3500   200.91631     -3656.7848      22.412517     -3634.3722      859.56586      11168.651      22.352885      22.352885      22.352885    
      4000   197.55599     -3656.6704      22.037668     -3634.6328      638.16391      11180.711      22.360927      22.360927      22.360927    
      4500   195.75239     -3655.5848      21.836473     -3633.7483      582.37891      11184.159      22.363226      22.363226      22.363226    
      5000   198.99233     -3655.198       22.197894     -3633.0002     -1879.7263      11192.041      22.368478      22.368478      22.368478    
      5500   193.70684     -3656.6995      21.608289     -3635.0912      414.59937      11179.366      22.36003       22.36003       22.36003     
      6000   199.49018     -3657.1599      22.253429     -3634.9065      475.95094      11173.542      22.356147      22.356147      22.356147    
      6500   193.33481     -3655.511       21.566789     -3633.9442     -524.93227      11177.905      22.359056      22.359056      22.359056    
      7000   200.99146     -3655.0996      22.4209       -3632.6787      1533.455       11163.602      22.349516      22.349516      22.349516    
      7500   193.38765     -3654.4541      21.572683     -3632.8814     -2922.338       11230.608      22.394142      22.394142      22.394142    
      8000   202.86613     -3656.2227      22.630023     -3633.5927     -1050.0018      11205.917      22.377719      22.377719      22.377719    
      8500   198.59567     -3656.097       22.153646     -3633.9433      2163.444       11155.306      22.343978      22.343978      22.343978    
      9000   198.81098     -3654.9893      22.177664     -3632.8117     -85.286637      11185.964      22.364429      22.364429      22.364429    
      9500   195.49478     -3655.4844      21.807736     -3633.6766      99.884137      11186.8        22.364986      22.364986      22.364986    
     10000   187.93807     -3655.5405      20.964774     -3634.5757     -2690.8651      11192.88       22.369037      22.369037      22.369037    
     10500   197.78013     -3656.1348      22.062671     -3634.0721     -2838.2666      11193.39       22.369377      22.369377      22.369377    
     11000   207.69153     -3656.0516      23.168303     -3632.8833      3134.2743      11124.673      22.323507      22.323507      22.323507    
     11500   200.14526     -3655.5162      22.326505     -3633.1897      2376.1664      11154.736      22.343598      22.343598      22.343598    
     12000   200.83396     -3656.4639      22.40333      -3634.0606     -688.07281      11182.177      22.361904      22.361904      22.361904    
     12500   199.079       -3655.7978      22.207563     -3633.5903     -3191.4178      11190.4        22.367384      22.367384      22.367384    
     13000   200.88885     -3656.6498      22.409454     -3634.2404     -2399.3175      11202.846      22.375673      22.375673      22.375673    
     13500   203.46563     -3656.9532      22.696897     -3634.2563      3155.0232      11146.762      22.338272      22.338272      22.338272    
     14000   194.59646     -3656.1796      21.707528     -3634.4721      451.02744      11173.754      22.356288      22.356288      22.356288    
     14500   202.73717     -3655.6931      22.615636     -3633.0774      1385.2917      11159.56       22.346818      22.346818      22.346818    
     15000   193.28789     -3656.154       21.561555     -3634.5925     -604.0953       11179.168      22.359898      22.359898      22.359898    
     15500   186.86147     -3656.2347      20.844678     -3635.39        119.78718      11143.433      22.336048      22.336048      22.336048    
     16000   203.64693     -3656.5397      22.717121     -3633.8226      38.366025      11178.885      22.35971       22.35971       22.35971     
     16500   207.5087      -3656.3912      23.147908     -3633.2433      1978.7449      11144.055      22.336464      22.336464      22.336464    
     17000   203.78465     -3657.4373      22.732485     -3634.7049      1017.8619      11159.52       22.346791      22.346791      22.346791    
     17500   204.48088     -3657.7527      22.81015      -3634.9425      3356.845       11134.283      22.329933      22.329933      22.329933    
     18000   201.29416     -3656.4013      22.454666     -3633.9467      598.22351      11172.525      22.355469      22.355469      22.355469    
     18500   204.53454     -3656.1711      22.816136     -3633.355      -1847.757       11191.533      22.368139      22.368139      22.368139    
     19000   207.26249     -3656.9132      23.120442     -3633.7928      3335.1371      11135.983      22.331069      22.331069      22.331069    
     19500   202.24168     -3657.6373      22.560364     -3635.0769     -383.60654      11169.522      22.353465      22.353465      22.353465    
     20000   201.17687     -3656.5157      22.441582     -3634.0742      828.65645      11152.681      22.342225      22.342225      22.342225    
     20500   201.1905      -3656.6254      22.443103     -3634.1823      1218.0946      11159.268      22.346623      22.346623      22.346623    
     21000   197.55318     -3656.0861      22.037355     -3634.0488     -3363.5839      11182.96       22.362426      22.362426      22.362426    
     21500   208.42233     -3656.8078      23.249824     -3633.558      -287.53185      11176.712      22.358261      22.358261      22.358261    
     22000   209.07488     -3655.3673      23.322617     -3632.0447     -31.884394      11175.211      22.35726       22.35726       22.35726     
     22500   203.42086     -3655.8159      22.691904     -3633.124       1953.8861      11162.237      22.348605      22.348605      22.348605    
     23000   204.2724      -3657.0467      22.786894     -3634.2598     -2327.7489      11172.121      22.355199      22.355199      22.355199    
     23500   191.93344     -3656.4116      21.410464     -3635.0011      299.27331      11177.439      22.358746      22.358746      22.358746    
     24000   209.7226      -3657.589       23.394872     -3634.1941     -170.63124      11173.807      22.356324      22.356324      22.356324    
     24500   201.42858     -3656.184       22.469661     -3633.7143      707.63092      11174.627      22.35687       22.35687       22.35687     
     25000   194.14064     -3656.739       21.656681     -3635.0824      538.64278      11167.883      22.352372      22.352372      22.352372    
     25500   193.03025     -3657.3332      21.532815     -3635.8004      2058.5053      11147.835      22.338989      22.338989      22.338989    
     26000   197.33005     -3656.8411      22.012464     -3634.8286     -1744.7156      11179.664      22.360229      22.360229      22.360229    
     26500   195.4332      -3655.9994      21.800867     -3634.1986      1122.2011      11151.785      22.341627      22.341627      22.341627    
     27000   209.01981     -3656.5598      23.316474     -3633.2433     -1844.8936      11170.75       22.354284      22.354284      22.354284    
     27500   198.52567     -3657.2603      22.145837     -3635.1145      411.2314       11148.254      22.339269      22.339269      22.339269    
     28000   199.54277     -3657.2997      22.259296     -3635.0404     -567.72708      11172.77       22.355632      22.355632      22.355632    
     28500   194.10694     -3656.3693      21.652921     -3634.7164     -333.57837      11174.35       22.356686      22.356686      22.356686    
     29000   209.85482     -3656.7183      23.409621     -3633.3087      1782.2303      11148.048      22.339131      22.339131      22.339131    
     29500   204.60595     -3656.5353      22.824102     -3633.7112     -1705.8402      11160.804      22.347648      22.347648      22.347648    
     30000   190.50911     -3656.9908      21.251578     -3635.7392      1715.773       11154.859      22.34368       22.34368       22.34368     
     30500   202.60463     -3657.0621      22.600852     -3634.4612     -851.55777      11180.37       22.3607        22.3607        22.3607      
     31000   203.7233      -3656.5556      22.725641     -3633.83       -1864.3273      11191.118      22.367863      22.367863      22.367863    
     31500   199.94421     -3657.4309      22.304077     -3635.1269      2756.4674      11153.202      22.342573      22.342573      22.342573    
     32000   200.53047     -3657.1102      22.369476     -3634.7407      170.70191      11163.988      22.349773      22.349773      22.349773    
     32500   202.0847      -3656.1214      22.542852     -3633.5785     -842.60729      11175.217      22.357264      22.357264      22.357264    
     33000   206.63717     -3655.9077      23.050687     -3632.857      -251.24945      11174.694      22.356915      22.356915      22.356915    
     33500   205.4582      -3655.8048      22.919171     -3632.8856     -209.699        11158.218      22.345922      22.345922      22.345922    
     34000   197.29101     -3656.114       22.008109     -3634.1059     -931.09469      11179.425      22.36007       22.36007       22.36007     
     34500   195.08576     -3655.8602      21.76211      -3634.0981     -3359.2193      11191.469      22.368097      22.368097      22.368097    
     35000   204.31467     -3656.6465      22.791609     -3633.8549      2689.1946      11126.99       22.325056      22.325056      22.325056    
     35500   214.68113     -3655.5584      23.948003     -3631.6104      1582.2251      11152.178      22.34189       22.34189       22.34189     
     36000   192.73495     -3656.557       21.499874     -3635.0572     -902.67792      11193.491      22.369444      22.369444      22.369444    
     36500   198.68337     -3656.0048      22.163429     -3633.8413      573.93063      11174.664      22.356895      22.356895      22.356895    
     37000   191.04825     -3657.0238      21.31172      -3635.712       970.19157      11157.81       22.34565       22.34565       22.34565     
     37500   189.72195     -3656.2347      21.16377      -3635.071       868.91386      11153.277      22.342623      22.342623      22.342623    
     38000   205.94202     -3656.714       22.973142     -3633.7409      1968.3767      11144.061      22.336467      22.336467      22.336467    
     38500   205.59046     -3656.7793      22.933925     -3633.8454     -14.23608       11170.564      22.354161      22.354161      22.354161    
     39000   194.75455     -3656.8501      21.725163     -3635.1249     -502.3905       11162.441      22.348741      22.348741      22.348741    
     39500   194.76081     -3656.0826      21.725861     -3634.3567     -718.97691      11164.032      22.349803      22.349803      22.349803    
     40000   203.22078     -3655.8793      22.669584     -3633.2097      1249.9027      11162.762      22.348955      22.348955      22.348955    
     40500   204.07924     -3656.6576      22.765347     -3633.8922     -1338.5209      11180.005      22.360457      22.360457      22.360457    
     41000   206.65851     -3656.0027      23.053068     -3632.9496      516.64531      11173.711      22.356259      22.356259      22.356259    
     41500   191.96497     -3655.4938      21.413981     -3634.0798      683.96616      11159.497      22.346776      22.346776      22.346776    
     42000   197.53594     -3656.7197      22.035431     -3634.6843      526.55264      11142.643      22.33552       22.33552       22.33552     
     42500   196.1403      -3656.3459      21.879746     -3634.4662     -1272.8984      11173.022      22.3558        22.3558        22.3558      
     43000   210.69844     -3656.3836      23.503729     -3632.8799     -1328.8142      11187.137      22.36521       22.36521       22.36521     
     43500   208.12997     -3656.1939      23.217211     -3632.9767     -852.57239      11157.944      22.345739      22.345739      22.345739    
     44000   196.21166     -3656.0114      21.887706     -3634.1237     -3596.2101      11205.228      22.37726       22.37726       22.37726     
     44500   207.08703     -3657.5339      23.10087      -3634.4331      581.13595      11148.688      22.339559      22.339559      22.339559    
     45000   194.88494     -3657.0715      21.739708     -3635.3318     -306.67551      11163.389      22.349374      22.349374      22.349374    
     45500   195.31217     -3657.1065      21.787366     -3635.3192      2314.6773      11119.202      22.319846      22.319846      22.319846    
     46000   201.25976     -3656.205       22.450829     -3633.7542     -2321.5417      11197.666      22.372224      22.372224      22.372224    
     46500   198.6266      -3655.6892      22.157096     -3633.5321     -1174.1043      11190.352      22.367353      22.367353      22.367353    
     47000   212.30734     -3656.1224      23.683204     -3632.4392      45.590555      11168.402      22.352718      22.352718      22.352718    
     47500   198.68922     -3655.9925      22.164081     -3633.8284      1333.519       11143.555      22.33613       22.33613       22.33613     
     48000   202.69009     -3656.8682      22.610385     -3634.2578     -309.94956      11178.213      22.359262      22.359262      22.359262    
     48500   204.88034     -3655.8975      22.85471      -3633.0428      1457.7521      11154.984      22.343763      22.343763      22.343763    
     49000   195.8827      -3656.3319      21.85101      -3634.4809      130.26361      11164.708      22.350254      22.350254      22.350254    
     49500   195.54543     -3657.3925      21.813387     -3635.5791     -1423.3785      11174.749      22.356952      22.356952      22.356952    
     50000   195.87921     -3657.2939      21.85062      -3635.4432     -3462.5062      11192.6        22.36885       22.36885       22.36885     
Loop time of 919.8 on 8 procs for 50000 steps with 864 atoms

Performance: 4.697 ns/day, 5.110 hours/ns, 54.360 timesteps/s, 46.967 katom-step/s
94.2% CPU use with 1 MPI tasks x 8 OpenMP threads

MPI task timing breakdown:
Section |  min time  |  avg time  |  max time  |%varavg| %total
---------------------------------------------------------------
Pair    | 838.36     | 838.36     | 838.36     |   0.0 | 91.15
Neigh   | 0          | 0          | 0          |   0.0 |  0.00
Comm    | 0.78879    | 0.78879    | 0.78879    |   0.0 |  0.09
Output  | 0.006309   | 0.006309   | 0.006309   |   0.0 |  0.00
Modify  | 80.475     | 80.475     | 80.475     |   0.0 |  8.75
Other   |            | 0.1686     |            |       |  0.02

Nlocal:            864 ave         864 max         864 min
Histogram: 1 0 0 0 0 0 0 0 0 0
Nghost:           3757 ave        3757 max        3757 min
Histogram: 1 0 0 0 0 0 0 0 0 0
Neighs:          71289 ave       71289 max       71289 min
Histogram: 1 0 0 0 0 0 0 0 0 0
FullNghs:       142578 ave      142578 max      142578 min
Histogram: 1 0 0 0 0 0 0 0 0 0

Total # of neighbors = 142578
Ave neighs/atom = 165.02083
Neighbor list builds = 0
Dangerous builds = 0

=== FINAL RESULTS: FCC at 200 K ===
Atoms: 864 | PE/atom: -4.23193268101196 eV/atom
WARNING: Detected non-ASCII characters in input. Will try to continue by replacing with ASCII equivalents where known. (src/input.cpp:479)
Volume: 11192.6001987627 …³ | Area: 500.365465084586 ²
==========================================
FCC 200 864 -4.23193268101196 11192.6001987627 22.3688503299697 22.3688503299697 22.3688503299697 500.365465084586
Simulation complete!
Total wall time: 0:21:07
