LAMMPS (10 Sep 2025)
  using 8 OpenMP thread(s) per MPI task
Loaded 1 plugins from C:\Users\kumar\AppData\Local\LAMMPS 64-bit 10Sep2025\plugins
using multi-threaded neighbor list subroutines
Reading data file ...
  orthogonal box = (0 0 0) to (15.581098 26.987253 25.443826)
  1 by 1 by 1 MPI processor grid
  reading atoms ...
  432 atoms
  read_data CPU = 0.004 seconds
=== STAGE 1: Energy Minimization ===
Switching to 'neigh_modify every 1 delay 0 check yes' setting during minimization
No /omp style for force computation currently active
Neighbor list info ...
  update: every = 1 steps, delay = 0 steps, check = yes
  max neighbors/atom: 4000, page size: 100000
  master list distance cutoff = 8
  ghost atom cutoff = 8
  binsize = 4, bins = 4 7 7
  2 neighbor lists, perpetual/occasional/extra = 2 0 0
  (1) pair meam, perpetual
      attributes: full, newton on, omp
      pair build: full/bin/atomonly/omp
      stencil: full/bin/3d
      bin: standard
  (2) pair meam, perpetual, half/full from (1)
      attributes: half, newton on, omp
      pair build: halffull/newton/omp
      stencil: none
      bin: none
Setting up cg style minimization ...
  Unit style    : metal
  Current step  : 0
Per MPI rank memory allocation (min/avg/max) = 19.36 | 19.36 | 19.36 Mbytes
   Step          Temp          PotEng         KinEng         TotEng         Press          Volume           Lx             Ly             Lz      
         0   0             -1256.7582      0             -1256.7582     -32012.511      10698.901      15.581098      26.987253      25.443826    
       248   0             -1558.002       0             -1558.002      -58635.194      10698.901      15.581098      26.987253      25.443826    
Loop time of 4.21754 on 8 procs for 248 steps with 432 atoms

98.2% CPU use with 1 MPI tasks x 8 OpenMP threads

Minimization stats:
  Stopping criterion = energy tolerance
  Energy initial, next-to-last, final = 
     -1256.75824779817  -1558.00153464751  -1558.00197753713
  Force two-norm initial, final = 48.800073 4.5353073
  Force max component initial, final = 6.5139283 1.2863981
  Final line search alpha, max atom move = 0.0045092222 0.0058006547
  Iterations, force evaluations = 248 660

MPI task timing breakdown:
Section |  min time  |  avg time  |  max time  |%varavg| %total
---------------------------------------------------------------
Pair    | 4.1036     | 4.1036     | 4.1036     |   0.0 | 97.30
Neigh   | 0.003949   | 0.003949   | 0.003949   |   0.0 |  0.09
Comm    | 0.007795   | 0.007795   | 0.007795   |   0.0 |  0.18
Output  | 0          | 0          | 0          |   0.0 |  0.00
Modify  | 0.091965   | 0.091965   | 0.091965   |   0.0 |  2.18
Other   |            | 0.01025    |            |       |  0.24

Nlocal:            432 ave         432 max         432 min
Histogram: 1 0 0 0 0 0 0 0 0 0
Nghost:           1885 ave        1885 max        1885 min
Histogram: 1 0 0 0 0 0 0 0 0 0
Neighs:          18491 ave       18491 max       18491 min
Histogram: 1 0 0 0 0 0 0 0 0 0
FullNghs:        36982 ave       36982 max       36982 min
Histogram: 1 0 0 0 0 0 0 0 0 0

Total # of neighbors = 36982
Ave neighs/atom = 85.606481
Neighbor list builds = 5
Dangerous builds = 0
Minimized PE/atom: -3.60648605911372 eV/atom
=== STAGE 2: NPT Equilibration at 200 K ===
No /omp style for force computation currently active
Setting up Verlet run ...
  Unit style    : metal
  Current step  : 0
  Time step     : 0.002
Per MPI rank memory allocation (min/avg/max) = 18.25 | 18.25 | 18.25 Mbytes
   Step          Temp          PotEng         KinEng         TotEng         Press          Volume           Lx             Ly             Lz      
         0   200           -1558.002       11.142224     -1546.8598     -57522.817      10698.901      15.581098      26.987253      25.443826    
       500   487.47285     -1755.549       27.15766      -1728.3914     -3648.6273      6398.2032      13.127167      22.73692       21.436574    
      1000   199.43591     -1801.8811      11.110799     -1790.7703      1898.7604      6052.6574      12.886462      22.320007      21.043504    
      1500   196.52574     -1811.0769      10.948669     -1800.1282      1886.2304      6033.024       12.872513      22.295847      21.020726    
      2000   199.75922     -1814.8058      11.12881      -1803.677       1442.2934      5992.5802      12.843684      22.245914      20.973649    
      2500   215.10237     -1815.0393      11.983594     -1803.0557      2874.9362      5973.1868      12.829814      22.22189       20.950999    
      3000   200.35008     -1816.6762      11.161728     -1805.5145      1233.7508      5946.7869      12.810885      22.189103      20.920087    
      3500   183.918       -1820.7363      10.246278     -1810.49       -1590.5539      5906.2164      12.781685      22.138528      20.872405    
      4000   210.94966     -1824.8514      11.752242     -1813.0991      3054.339       5871.8807      12.756868      22.095544      20.831879    
      4500   225.47017     -1825.3084      12.561196     -1812.7472      1735.2211      5860.2044      12.748407      22.080889      20.818062    
      5000   205.87338     -1827.6194      11.469437     -1816.15        4238.1996      5856.0531      12.745396      22.075674      20.813145    
      5500   181.33161     -1832.2291      10.102188     -1822.1269     -4735.6903      5864.231       12.751326      22.085945      20.822829    
      6000   208.10902     -1833.2609      11.593987     -1821.6669      1863.6016      5804.0335      12.707545      22.010113      20.751333    
      6500   223.28967     -1834.4607      12.439718     -1822.021      -1650.3202      5809.6881      12.71167       22.017258      20.75807     
      7000   198.06967     -1835.0203      11.034684     -1823.9856      6082.8481      5777.6937      12.688292      21.976767      20.719895    
      7500   186.72335     -1835.6177      10.402567     -1825.2151     -237.24042      5791.4109      12.698326      21.994145      20.736279    
      8000   206.85505     -1835.9808      11.524127     -1824.4566      985.88462      5800.3182      12.704832      22.005415      20.746905    
      8500   204.79618     -1836.6401      11.409425     -1825.2307      2286.4065      5790.4442      12.697619      21.992921      20.735125    
      9000   197.77287     -1837.4617      11.018149     -1826.4436     -2863.0829      5801.0515      12.705368      22.006343      20.747779    
      9500   200.57497     -1838.3983      11.174257     -1827.2241     -1729.4948      5791.9265      12.698703      21.994798      20.736894    
     10000   207.10159     -1839.4999      11.537862     -1827.9621     -1046.1408      5775.0257      12.686339      21.973384      20.716705    
     10500   203.17216     -1840.0943      11.318949     -1828.7754      1933.0305      5762.6156      12.677245      21.957633      20.701854    
     11000   200.25237     -1841.4443      11.156284     -1830.2881      984.49802      5773.4952      12.685218      21.971442      20.714874    
     11500   196.68976     -1842.0015      10.957807     -1831.0437     -735.18718      5767.8197      12.68106       21.96424       20.708084    
     12000   194.48464     -1841.3741      10.834958     -1830.5391     -322.21476      5774.3506      12.685845      21.972527      20.715897    
     12500   206.51975     -1841.9059      11.505447     -1830.4005     -1606.3303      5787.6835      12.695601      21.989426      20.731829    
     13000   203.28033     -1841.2902      11.324976     -1829.9652     -2656.8378      5801.5108      12.705703      22.006923      20.748326    
     13500   202.98248     -1842.1064      11.308382     -1830.798       1198.6564      5786.3673      12.694638      21.987759      20.730258    
     14000   197.90166     -1842.0449      11.025324     -1831.0196     -111.55449      5783.5876      12.692605      21.984237      20.726938    
     14500   199.37305     -1843.1596      11.107296     -1832.0523      1857.3031      5777.8702      12.688421      21.976991      20.720105    
     15000   197.89931     -1842.1992      11.025193     -1831.174       2507.1422      5784.5286      12.693294      21.985429      20.728062    
     15500   201.83034     -1842.1814      11.244195     -1830.9372      719.74429      5782.235       12.691616      21.982523      20.725322    
     16000   197.4314      -1841.706       10.999125     -1830.7069      3177.0771      5774.9485      12.686282      21.973286      20.716612    
     16500   193.80153     -1841.8317      10.796901     -1831.0348     -725.9651       5796.7032      12.702193      22.000843      20.742594    
     17000   200.1258      -1842.7144      11.149233     -1831.5652     -2599.8461      5811.615       12.713075      22.019692      20.760365    
     17500   203.09133     -1842.822       11.314446     -1831.5075      1695.2643      5768.5386      12.681587      21.965153      20.708945    
     18000   196.4932      -1841.8531      10.946857     -1830.9062      1037.1875      5781.0633      12.690758      21.981038      20.723922    
     18500   208.8022      -1842.4523      11.632605     -1830.8197      2639.6226      5780.834       12.690591      21.980748      20.723648    
     19000   196.80705     -1842.5508      10.964341     -1831.5864      3593.8033      5772.4354      12.684442      21.970098      20.713607    
     19500   199.6104      -1842.8568      11.120519     -1831.7363      1487.4224      5774.6666      12.686076      21.972928      20.716275    
     20000   196.56062     -1842.7181      10.950613     -1831.7675      2229.5875      5775.7759      12.686888      21.974335      20.717602    
Loop time of 281.711 on 8 procs for 20000 steps with 432 atoms

Performance: 12.268 ns/day, 1.956 hours/ns, 70.995 timesteps/s, 30.670 katom-step/s
96.7% CPU use with 1 MPI tasks x 8 OpenMP threads

MPI task timing breakdown:
Section |  min time  |  avg time  |  max time  |%varavg| %total
---------------------------------------------------------------
Pair    | 255.59     | 255.59     | 255.59     |   0.0 | 90.73
Neigh   | 0.018447   | 0.018447   | 0.018447   |   0.0 |  0.01
Comm    | 0.33798    | 0.33798    | 0.33798    |   0.0 |  0.12
Output  | 0.004289   | 0.004289   | 0.004289   |   0.0 |  0.00
Modify  | 25.684     | 25.684     | 25.684     |   0.0 |  9.12
Other   |            | 0.07124    |            |       |  0.03

Nlocal:            432 ave         432 max         432 min
Histogram: 1 0 0 0 0 0 0 0 0 0
Nghost:           2575 ave        2575 max        2575 min
Histogram: 1 0 0 0 0 0 0 0 0 0
Neighs:          34213 ave       34213 max       34213 min
Histogram: 1 0 0 0 0 0 0 0 0 0
FullNghs:        68426 ave       68426 max       68426 min
Histogram: 1 0 0 0 0 0 0 0 0 0

Total # of neighbors = 68426
Ave neighs/atom = 158.39352
Neighbor list builds = 19
Dangerous builds = 0
=== STAGE 3: NPT Production at 200 K ===
No /omp style for force computation currently active
Setting up Verlet run ...
  Unit style    : metal
  Current step  : 0
  Time step     : 0.001
Per MPI rank memory allocation (min/avg/max) = 18.61 | 18.61 | 18.61 Mbytes
   Step          Temp          PotEng         KinEng         TotEng         Press          Volume           Lx             Ly             Lz      
         0   196.56062     -1842.7181      10.950613     -1831.7675      2229.5875      5775.7759      12.686888      21.974335      20.717602    
       500   202.02913     -1842.9728      11.25527      -1831.7175      635.05341      5789.1693      12.696687      21.991307      20.733603    
      1000   194.02277     -1842.241       10.809226     -1831.4318     -1627.2942      5795.7726      12.701513      21.999665      20.741483    
      1500   211.96505     -1842.2584      11.808811     -1830.4496     -3219.5723      5791.8011      12.698611      21.994639      20.736745    
      2000   192.07073     -1842.9973      10.700476     -1832.2968     -522.1658       5790.5386      12.697688      21.993041      20.735238    
      2500   194.0543      -1842.7586      10.810983     -1831.9476     -1471.3893      5797.1249      12.702501      22.001376      20.743096    
      3000   202.57105     -1841.6606      11.28546      -1830.3751      815.67604      5786.9691      12.695078      21.988521      20.730976    
      3500   207.50859     -1842.4739      11.560536     -1830.9134     -1778.0925      5792.6366      12.699221      21.995697      20.737742    
      4000   196.48475     -1842.556       10.946386     -1831.6096     -1596.6925      5794.3607      12.700481      21.997879      20.739799    
      4500   189.23106     -1842.9793      10.542275     -1832.437      -485.73159      5784.4939      12.693268      21.985386      20.72802     
      5000   210.60506     -1842.7216      11.733044     -1830.9885     -1202.1122      5794.7924      12.700797      21.998425      20.740314    
      5500   197.16877     -1843.624       10.984494     -1832.6395      608.40957      5760.7983      12.675912      21.955324      20.699678    
      6000   193.60759     -1843.5462      10.786096     -1832.7601     -1721.7833      5789.4471      12.69689       21.991659      20.733935    
      6500   208.48388     -1842.9892      11.614871     -1831.3743      732.91367      5774.1875      12.685725      21.97232       20.715702    
      7000   196.50192     -1842.4679      10.947342     -1831.5206      4006.4621      5763.4614      12.677865      21.958707      20.702867    
      7500   204.74187     -1842.7836      11.406399     -1831.3772     -289.65136      5787.6641      12.695587      21.989401      20.731806    
      8000   200.50759     -1843.421       11.170503     -1832.2504      1210.3557      5781.9544      12.69141       21.982168      20.724986    
      8500   206.79048     -1843.7696      11.52053      -1832.249      -1287.1587      5772.753       12.684674      21.970501      20.713987    
      9000   200.9675      -1842.6033      11.196125     -1831.4072     -1000.4059      5787.8227      12.695703      21.989602      20.731996    
      9500   203.27993     -1842.67        11.324953     -1831.345       428.84491      5789.8214      12.697164      21.992133      20.734382    
     10000   198.0153      -1842.4085      11.031654     -1831.3768     -5683.7415      5817.8964      12.717654      22.027623      20.767842    
     10500   202.49067     -1843.0436      11.280983     -1831.7626     -2334.3557      5792.2879      12.698967      21.995255      20.737326    
     11000   188.34844     -1843.8009      10.493103     -1833.3078      51.797172      5783.8855      12.692823      21.984615      20.727294    
     11500   198.83328     -1842.9049      11.077225     -1831.8277      907.28158      5770.8536      12.683283      21.968091      20.711715    
     12000   206.99485     -1842.7998      11.531915     -1831.2679     -752.41515      5793.5835      12.699913      21.996895      20.738872    
     12500   200.79008     -1842.9193      11.186241     -1831.733       7518.3593      5744.9874      12.664305      21.93522       20.680724    
     13000   203.70085     -1843.6501      11.348403     -1832.3017     -2977.2717      5784.249       12.693089      21.985075      20.727728    
     13500   192.87095     -1843.697       10.745057     -1832.952       514.19828      5766.993       12.680454      21.963191      20.707095    
     14000   205.35075     -1842.972       11.440321     -1831.5317      2221.9556      5772.3898      12.684408      21.97004       20.713552    
     14500   213.11486     -1843.5137      11.872868     -1831.6409      4239.2704      5748.709       12.667039      21.939955      20.685188    
     15000   204.34592     -1843.2645      11.38434      -1831.8802      521.88833      5771.6415      12.68386       21.969091      20.712657    
     15500   194.59248     -1842.8021      10.840966     -1831.9612     -5236.4364      5801.9101      12.705995      22.007428      20.748802    
     16000   209.40869     -1843.2597      11.666393     -1831.5933     -3144.491       5785.9637      12.694343      21.987247      20.729776    
     16500   215.97582     -1843.1068      12.032255     -1831.0745      4471.3001      5752.2162      12.669615      21.944416      20.689394    
     17000   198.55595     -1842.9477      11.061775     -1831.886      -1636.1138      5788.5699      12.696249      21.990548      20.732888    
     17500   193.07303     -1844.4126      10.756315     -1833.6563      1539.578       5775.1139      12.686403      21.973495      20.71681     
     18000   202.23056     -1843.314       11.266492     -1832.0475     -126.51707      5779.0342      12.689273      21.978466      20.721497    
     18500   205.01641     -1843.0526      11.421694     -1831.6309      9.5062441      5791.8         12.69861       21.994638      20.736743    
     19000   210.3909      -1843.7295      11.721113     -1832.0084     -1446.8394      5804.8107      12.708112      22.011095      20.752259    
     19500   199.46425     -1843.896       11.112377     -1832.7837     -2008.2925      5788.7189      12.696358      21.990737      20.733066    
     20000   211.60015     -1843.5593      11.788482     -1831.7708      336.01225      5775.3314      12.686563      21.973771      20.71707     
     20500   198.062       -1843.3564      11.034256     -1832.3222     -3009.1419      5802.1667      12.706182      22.007753      20.749108    
     21000   195.52223     -1844.2824      10.892763     -1833.3896      1104.4098      5767.6378      12.680927      21.964009      20.707867    
     21500   202.83147     -1842.4099      11.299969     -1831.1099     -2323.806       5794.3605      12.700481      21.997879      20.739799    
     22000   213.5652      -1842.9587      11.897957     -1831.0607     -96.879858      5782.8136      12.692039      21.983257      20.726013    
     22500   188.20179     -1843.1486      10.484933     -1832.6637     -1655.4671      5789.7895      12.697141      21.992092      20.734344    
     23000   205.39328     -1843.2683      11.44269      -1831.8256      2020.6458      5776.1923      12.687193      21.974863      20.7181      
     23500   204.08794     -1842.2807      11.369968     -1830.9107     -1050.8209      5785.2391      12.693813      21.98633       20.72891     
     24000   205.95336     -1843.0674      11.473893     -1831.5936      2692.7928      5765.1535      12.679106      21.960855      20.704893    
     24500   207.50059     -1843.7095      11.560091     -1832.1495     -1184.9327      5782.2223      12.691606      21.982507      20.725307    
     25000   194.44962     -1843.2977      10.833006     -1832.4647      1784.4912      5761.2659      12.676255      21.955918      20.700238    
     25500   200.7892      -1842.9128      11.186192     -1831.7266      494.84873      5772.882       12.684769      21.970664      20.714141    
     26000   205.89996     -1842.7255      11.470918     -1831.2546      929.4207       5773.7389      12.685397      21.971751      20.715166    
     26500   184.63391     -1843.7545      10.286162     -1833.4683      1415.8954      5770.3327      12.682902      21.96743       20.711091    
     27000   195.32482     -1843.4335      10.881765     -1832.5518      3696.8235      5758.1744      12.673988      21.95199       20.696535    
     27500   202.78166     -1843.1846      11.297194     -1831.8874      1457.6813      5773.8859      12.685504      21.971938      20.715342    
     28000   197.43872     -1842.5149      10.999533     -1831.5154     -1829.3685      5798.6822      12.703638      22.003346      20.744954    
     28500   212.82372     -1842.3292      11.856648     -1830.4726      744.32078      5785.8276      12.694244      21.987075      20.729613    
     29000   194.79127     -1843.1217      10.852041     -1832.2697     -5434.2144      5800.6303      12.70506       22.00581       20.747277    
     29500   195.65119     -1843.2214      10.899947     -1832.3214      5447.2221      5749.766       12.667815      21.9413        20.686456    
     30000   207.97806     -1842.2843      11.586691     -1830.6976     -3630.1795      5798.9056      12.703801      22.003629      20.74522     
     30500   202.25057     -1843.3583      11.267606     -1832.0907      3347.5703      5746.9797      12.665769      21.937755      20.683114    
     31000   196.78052     -1843.1763      10.962864     -1832.2134      1947.4027      5763.2049      12.677677      21.958381      20.70256     
     31500   198.11041     -1843.3791      11.036953     -1832.3422     -1339.8441      5774.2033      12.685737      21.97234       20.715721    
     32000   201.21061     -1843.4941      11.209669     -1832.2845      2378.4924      5766.1857      12.679863      21.962166      20.706129    
     32500   204.93206     -1842.661       11.416995     -1831.244      -8065.1573      5797.0336      12.702434      22.001261      20.742988    
     33000   202.62208     -1843.0051      11.288303     -1831.7168      3014.6837      5757.9052      12.67379       21.951648      20.696212    
     33500   206.08878     -1844.0432      11.481437     -1832.5618     -574.68335      5774.9203      12.686262      21.97325       20.716579    
     34000   202.96255     -1843.1061      11.307272     -1831.7989     -3933.3386      5791.3867      12.698308      21.994115      20.73625     
     34500   202.16504     -1844.0058      11.262841     -1832.743      -619.67724      5771.8982      12.684048      21.969416      20.712964    
     35000   181.13894     -1843.6951      10.091454     -1833.6037      912.69558      5760.1184      12.675414      21.95446       20.698864    
     35500   213.31755     -1844.2783      11.88416      -1832.3941      1561.8088      5764.9343      12.678945      21.960577      20.704631    
     36000   193.21103     -1842.8297      10.764003     -1832.0657      605.97232      5767.7944      12.681042      21.964208      20.708054    
     36500   199.89183     -1844.0195      11.136198     -1832.8833      3002.6385      5759.1666      12.674715      21.953251      20.697724    
     37000   194.10417     -1843.7546      10.813761     -1832.9409      45.236309      5772.4849      12.684478      21.970161      20.713666    
     37500   189.6558      -1843.984       10.565937     -1833.418       1278.0324      5769.4313      12.682241      21.966286      20.710013    
     38000   211.80597     -1843.9137      11.799948     -1832.1138     -514.87902      5773.8434      12.685473      21.971884      20.715291    
     38500   212.92673     -1843.1364      11.862387     -1831.274       4905.8296      5748.509       12.666892      21.939701      20.684948    
     39000   204.18377     -1843.9013      11.375307     -1832.526       1666.142       5765.9114      12.679661      21.961818      20.7058      
     39500   196.19393     -1843.7386      10.930184     -1832.8084     -4343.7959      5790.2107      12.697448      21.992626      20.734847    
     40000   200.33787     -1843.5625      11.161048     -1832.4015      1620.8955      5765.3106      12.679221      21.961055      20.705081    
     40500   206.8998      -1843.3812      11.52662      -1831.8546      746.80297      5768.7795      12.681763      21.965459      20.709233    
     41000   201.03642     -1843.6446      11.199965     -1832.4446      1588.0874      5768.9213      12.681867      21.965639      20.709403    
     41500   188.77161     -1843.2376      10.516678     -1832.7209     -1727.0102      5776.9956      12.687781      21.975882      20.71906     
     42000   217.46145     -1843.6768      12.115022     -1831.5618     -980.35829      5774.505       12.685958      21.972723      20.716082    
     42500   205.44848     -1843.4047      11.445766     -1831.9589     -2084.1229      5785.0848      12.6937        21.986134      20.728726    
     43000   202.23143     -1844.2992      11.26654      -1833.0327      1186.596       5773.5898      12.685287      21.971562      20.714988    
     43500   199.33991     -1843.9154      11.10545      -1832.8099      2581.3472      5765.0863      12.679057      21.96077       20.704813    
     44000   228.83327     -1844.6178      12.748558     -1831.8693     -353.2979       5772.9477      12.684817      21.970748      20.71422     
     44500   209.89851     -1843.8503      11.693681     -1832.1566      546.49869      5772.1717      12.684249      21.969763      20.713291    
     45000   208.3047      -1844.1342      11.604889     -1832.5293      3044.8783      5764.1073      12.678339      21.959527      20.703641    
     45500   205.84824     -1844.349       11.468036     -1832.881      -2631.6015      5782.9655      12.69215       21.983449      20.726194    
     46000   198.82796     -1844.4975      11.076929     -1833.4206      3197.7972      5743.5834      12.663273      21.933433      20.679039    
     46500   203.19683     -1843.7261      11.320324     -1832.4057      552.56575      5761.1855      12.676196      21.955816      20.700142    
     47000   208.93132     -1843.5629      11.639798     -1831.9231     -1191.4728      5772.6712      12.684615      21.970397      20.713889    
     47500   199.71238     -1844.0117      11.126201     -1832.8855     -2096.751       5775.8296      12.686928      21.974403      20.717666    
     48000   197.85313     -1844.1271      11.02262      -1833.1045      2964.3093      5753.32        12.670425      21.94582       20.690717    
     48500   199.30062     -1844.684       11.103261     -1833.5807     -4738.321       5774.4588      12.685924      21.972665      20.716027    
     49000   197.38275     -1844.1524      10.996414     -1833.156      -1576.1365      5770.209       12.682811      21.967273      20.710943    
     49500   209.50409     -1843.8942      11.671708     -1832.2225     -1444.8513      5773.9192      12.685529      21.97198       20.715382    
     50000   201.77462     -1843.5283      11.241091     -1832.2872     -3403.0861      5778.6894      12.689021      21.978029      20.721085    
Loop time of 721.976 on 8 procs for 50000 steps with 432 atoms

Performance: 5.984 ns/day, 4.011 hours/ns, 69.254 timesteps/s, 29.918 katom-step/s
96.2% CPU use with 1 MPI tasks x 8 OpenMP threads

MPI task timing breakdown:
Section |  min time  |  avg time  |  max time  |%varavg| %total
---------------------------------------------------------------
Pair    | 657.6      | 657.6      | 657.6      |   0.0 | 91.08
Neigh   | 0.002861   | 0.002861   | 0.002861   |   0.0 |  0.00
Comm    | 0.85736    | 0.85736    | 0.85736    |   0.0 |  0.12
Output  | 0.009745   | 0.009745   | 0.009745   |   0.0 |  0.00
Modify  | 63.349     | 63.349     | 63.349     |   0.0 |  8.77
Other   |            | 0.1587     |            |       |  0.02

Nlocal:            432 ave         432 max         432 min
Histogram: 1 0 0 0 0 0 0 0 0 0
Nghost:           2572 ave        2572 max        2572 min
Histogram: 1 0 0 0 0 0 0 0 0 0
Neighs:          34323 ave       34323 max       34323 min
Histogram: 1 0 0 0 0 0 0 0 0 0
FullNghs:        68646 ave       68646 max       68646 min
Histogram: 1 0 0 0 0 0 0 0 0 0

Total # of neighbors = 68646
Ave neighs/atom = 158.90278
Neighbor list builds = 3
Dangerous builds = 0

=== FINAL RESULTS: DHCP at 200 K ===
Atoms: 432 | PE/atom: -4.2686041818059 eV/atom
WARNING: Detected non-ASCII characters in input. Will try to continue by replacing with ASCII equivalents where known. (src/input.cpp:479)
Volume: 5778.68938795749 …³ | Area: 278.87967639976 ²
==========================================
DHCP 200 432 -4.2686041818059 5778.68938795749 12.6890210895863 21.9780292294283 20.7210846719215 278.87967639976
Simulation complete!
Total wall time: 0:16:47
