LAMMPS (10 Sep 2025)
  using 8 OpenMP thread(s) per MPI task
Loaded 1 plugins from C:\Users\J.Shiva\AppData\Local\LAMMPS 64-bit 10Sep2025\plugins
using multi-threaded neighbor list subroutines
Reading data file ...
  orthogonal box = (0 0 0) to (16.620545 28.787628 27.141236)
  1 by 1 by 1 MPI processor grid
  reading atoms ...
  432 atoms
  read_data CPU = 0.027 seconds
=== STAGE 1: Energy Minimization ===
Switching to 'neigh_modify every 1 delay 0 check yes' setting during minimization
No /omp style for force computation currently active
Neighbor list info ...
  update: every = 1 steps, delay = 0 steps, check = yes
  max neighbors/atom: 4000, page size: 100000
  master list distance cutoff = 8
  ghost atom cutoff = 8
  binsize = 4, bins = 5 8 7
  2 neighbor lists, perpetual/occasional/extra = 2 0 0
  (1) pair meam, perpetual
      attributes: full, newton on, omp
      pair build: full/bin/atomonly/omp
      stencil: full/bin/3d
      bin: standard
  (2) pair meam, perpetual, half/full from (1)
      attributes: half, newton on, omp
      pair build: halffull/newton/omp
      stencil: none
      bin: none
Setting up cg style minimization ...
  Unit style    : metal
  Current step  : 0
Per MPI rank memory allocation (min/avg/max) = 19.3 | 19.3 | 19.3 Mbytes
   Step          Temp          PotEng         KinEng         TotEng         Press          Volume           Lx             Ly             Lz      
         0   0             -1088.7342      0             -1088.7342     -77438.835      12986.161      16.620545      28.787628      27.141236    
       112   0             -1295.4626      0             -1295.4626     -27336.063      12986.161      16.620545      28.787628      27.141236    
Loop time of 0.592036 on 8 procs for 112 steps with 432 atoms

81.8% CPU use with 1 MPI tasks x 8 OpenMP threads

Minimization stats:
  Stopping criterion = energy tolerance
  Energy initial, next-to-last, final = 
     -1088.73416660111  -1295.46217009855  -1295.46263112529
  Force two-norm initial, final = 7.0421711 3.5954674
  Force max component initial, final = 0.61699478 1.6860854
  Final line search alpha, max atom move = 0.23872826 0.40251623
  Iterations, force evaluations = 112 192

MPI task timing breakdown:
Section |  min time  |  avg time  |  max time  |%varavg| %total
---------------------------------------------------------------
Pair    | 0.54427    | 0.54427    | 0.54427    |   0.0 | 91.93
Neigh   | 0.004014   | 0.004014   | 0.004014   |   0.0 |  0.68
Comm    | 0.001093   | 0.001093   | 0.001093   |   0.0 |  0.18
Output  | 0          | 0          | 0          |   0.0 |  0.00
Modify  | 0.038818   | 0.038818   | 0.038818   |   0.0 |  6.56
Other   |            | 0.003839   |            |       |  0.65

Nlocal:            432 ave         432 max         432 min
Histogram: 1 0 0 0 0 0 0 0 0 0
Nghost:           1695 ave        1695 max        1695 min
Histogram: 1 0 0 0 0 0 0 0 0 0
Neighs:          15092 ave       15092 max       15092 min
Histogram: 1 0 0 0 0 0 0 0 0 0
FullNghs:        30184 ave       30184 max       30184 min
Histogram: 1 0 0 0 0 0 0 0 0 0

Total # of neighbors = 30184
Ave neighs/atom = 69.87037
Neighbor list builds = 6
Dangerous builds = 0
Minimized PE/atom: -2.9987560905678 eV/atom
=== STAGE 2: NPT Equilibration at 400 K ===
No /omp style for force computation currently active
Setting up Verlet run ...
  Unit style    : metal
  Current step  : 0
  Time step     : 0.002
Per MPI rank memory allocation (min/avg/max) = 18.17 | 18.17 | 18.17 Mbytes
   Step          Temp          PotEng         KinEng         TotEng         Press          Volume           Lx             Ly             Lz      
         0   400           -1295.4626      22.284449     -1273.1782     -25503.157      12986.161      16.620545      28.787628      27.141236    
       500   535.36051     -1365.6005      29.825535     -1335.7749     -3943.9363      8685.9266      14.535291      25.175862      23.73603     
      1000   389.24727     -1394.4116      21.685403     -1372.7262     -1837.8103      7953.4494      14.114652      24.447294      23.04913     
      1500   383.96813     -1406.683       21.391295     -1385.2917      2010.8989      7736.8594      13.985347      24.223331      22.837976    
      2000   411.35045     -1412.37        22.916795     -1389.4532      1639.7842      7751.4597      13.994138      24.238559      22.852332    
      2500   422.49213     -1416.9912      23.537511     -1393.4537     -1965.383       7689.7709      13.956916      24.174088      22.791549    
      3000   384.11986     -1420.8157      21.399749     -1399.4159      1427.4663      7569.8614      13.883991      24.047777      22.672462    
      3500   423.24176     -1421.7177      23.579274     -1398.1384      2721.3478      7591.193       13.89702       24.070345      22.693738    
      4000   429.89908     -1425.3698      23.95016      -1401.4196      1715.3497      7604.9153      13.905389      24.08484       22.707404    
      4500   400.1956      -1429.1169      22.295346     -1406.8216     -419.79573      7544.1377      13.868246      24.020507      22.646751    
      5000   417.19125     -1429.0288      23.242193     -1405.7866      429.07065      7552.0498      13.873093      24.028901      22.654665    
      5500   418.94339     -1429.4607      23.339806     -1406.1209     -348.66364      7525.4983      13.856815      24.000708      22.628084    
      6000   408.48606     -1429.872       22.757217     -1407.1148      1600.1088      7563.6821      13.880212      24.041232      22.666291    
      6500   379.16325     -1429.7977      21.12361      -1408.6741     -2358.7482      7567.9614      13.882829      24.045765      22.670565    
      7000   430.67994     -1434.1443      23.993663     -1410.1506      3631.3651      7459.485       13.816179      23.930324      22.561726    
      7500   412.93605     -1434.7603      23.005131     -1411.7552     -364.93082      7500.7143      13.841587      23.974331      22.603216    
      8000   382.6727      -1434.7112      21.319126     -1413.392       2797.3194      7413.2393      13.787568      23.880769      22.515005    
      8500   395.7449      -1438.8672      22.047393     -1416.8198     -190.6713       7459.5572      13.816224      23.930401      22.561799    
      9000   405.37987     -1438.5272      22.584168     -1415.9431     -85.500078      7450.4661      13.810609      23.920676      22.552629    
      9500   402.47784     -1441.2642      22.422492     -1418.8417      606.15298      7439.1217      13.803595      23.908529      22.541177    
     10000   405.25248     -1440.1427      22.577071     -1417.5656     -2362.8414      7571.2768      13.884856      24.049276      22.673875    
     10500   407.8975      -1444.6657      22.724428     -1421.9412      983.95855      7523.8417      13.855798      23.998947      22.626424    
     11000   398.54872     -1443.4719      22.203596     -1421.2683     -173.71604      7531.9804      13.860792      24.007597      22.634579    
     11500   416.80481     -1443.983       23.220664     -1420.7624      3923.7184      7498.2228      13.840054      23.971677      22.600713    
     12000   379.87491     -1444.9202      21.163258     -1423.7569     -7194.9942      7584.2047      13.892754      24.062956      22.686773    
     12500   394.07365     -1445.4976      21.954286     -1423.5433      39.738302      7504.7798      13.844087      23.978662      22.607299    
     13000   385.76548     -1446.8577      21.491428     -1425.3662      1691.3041      7446.6594      13.808256      23.916601      22.548788    
     13500   383.25317     -1448.7043      21.351464     -1427.3528      2170.3211      7470.266       13.822832      23.941847      22.57259     
     14000   384.14422     -1450.617       21.401106     -1429.2158     -1306.8863      7529.5756      13.859317      24.005042      22.63217     
     14500   419.22117     -1451.1967      23.355282     -1427.8414      2364.286       7563.8597      13.88032       24.04142       22.666468    
     15000   445.09693     -1450.982       24.796849     -1426.1852      481.28692      7609.9333      13.908446      24.090136      22.712398    
     15500   384.4872      -1453.5458      21.420213     -1432.1255     -1422.705       7527.681       13.858155      24.003028      22.630272    
     16000   394.16683     -1453.3753      21.959477     -1431.4158     -307.00973      7539.6507      13.865496      24.015744      22.64226     
     16500   409.92298     -1455.6858      22.837269     -1432.8485     -3372.4769      7638.0569      13.925559      24.119775      22.740342    
     17000   438.64016     -1457.8788      24.437136     -1433.4417     -1795.2412      7572.4134      13.885551      24.050479      22.675009    
     17500   403.91258     -1458.3987      22.502423     -1435.8963     -3152.6426      7534.7617      13.862498      24.010552      22.637365    
     18000   402.80327     -1460.215       22.440622     -1437.7744      2905.3332      7496.0358      13.838708      23.969346      22.598516    
     18500   423.26757     -1459.5412      23.580712     -1435.9605     -829.24651      7505.3477      13.844436      23.979267      22.60787     
     19000   386.82923     -1458.5784      21.550691     -1437.0277     -4077.5904      7545.8096      13.86927       24.022281      22.648424    
     19500   413.19502     -1462.1221      23.019559     -1439.1025      1331.7457      7444.4131      13.806868      23.914196      22.54652     
     20000   392.21543     -1460.4304      21.850762     -1438.5796     -2179.2556      7517.3457      13.85181       23.992038      22.61991     
Loop time of 125.36 on 8 procs for 20000 steps with 432 atoms

Performance: 27.569 ns/day, 0.871 hours/ns, 159.541 timesteps/s, 68.922 katom-step/s
88.0% CPU use with 1 MPI tasks x 8 OpenMP threads

MPI task timing breakdown:
Section |  min time  |  avg time  |  max time  |%varavg| %total
---------------------------------------------------------------
Pair    | 107.09     | 107.09     | 107.09     |   0.0 | 85.42
Neigh   | 0.078745   | 0.078745   | 0.078745   |   0.0 |  0.06
Comm    | 0.13726    | 0.13726    | 0.13726    |   0.0 |  0.11
Output  | 0.002997   | 0.002997   | 0.002997   |   0.0 |  0.00
Modify  | 18.02      | 18.02      | 18.02      |   0.0 | 14.37
Other   |            | 0.03382    |            |       |  0.03

Nlocal:            432 ave         432 max         432 min
Histogram: 1 0 0 0 0 0 0 0 0 0
Nghost:           2209 ave        2209 max        2209 min
Histogram: 1 0 0 0 0 0 0 0 0 0
Neighs:          26642 ave       26642 max       26642 min
Histogram: 1 0 0 0 0 0 0 0 0 0
FullNghs:        53284 ave       53284 max       53284 min
Histogram: 1 0 0 0 0 0 0 0 0 0

Total # of neighbors = 53284
Ave neighs/atom = 123.34259
Neighbor list builds = 99
Dangerous builds = 0
=== STAGE 3: NPT Production at 400 K ===
No /omp style for force computation currently active
Setting up Verlet run ...
  Unit style    : metal
  Current step  : 0
  Time step     : 0.001
Per MPI rank memory allocation (min/avg/max) = 18.42 | 18.42 | 18.42 Mbytes
   Step          Temp          PotEng         KinEng         TotEng         Press          Volume           Lx             Ly             Lz      
         0   392.21543     -1460.4304      21.850762     -1438.5796     -2179.2556      7517.3457      13.85181       23.992038      22.61991     
       500   384.93167     -1462.9682      21.444975     -1441.5232     -1373.4349      7452.829       13.812068      23.923204      22.555013    
      1000   399.21073     -1463.9086      22.240478     -1441.6681      845.25382      7410.0093      13.785566      23.8773        22.511734    
      1500   411.27583     -1462.9478      22.912638     -1440.0352     -1204.7039      7409.208       13.785069      23.876439      22.510923    
      2000   398.23032     -1464.0852      22.185858     -1441.8994      454.69041      7407.8755      13.784242      23.875008      22.509573    
      2500   412.12392     -1464.4863      22.959886     -1441.5264      1227.7096      7336.6542      13.739925      23.798248      22.437203    
      3000   407.21073     -1464.181       22.686167     -1441.4948     -4530.5767      7448.2624      13.809247      23.918317      22.550406    
      3500   399.51683     -1464.9787      22.257531     -1442.7212      503.12673      7375.7862      13.76431       23.840484      22.477024    
      4000   394.36705     -1464.3876      21.970631     -1442.417       874.39213      7408.6662      13.784733      23.875857      22.510374    
      4500   391.75873     -1465.9153      21.825319     -1444.09        1281.5622      7338.0439      13.740792      23.79975       22.43862     
      5000   405.47394     -1467.7338      22.589408     -1445.1444     -4419.8682      7407.8289      13.784213      23.874958      22.509526    
      5500   366.69986     -1466.71        20.429261     -1446.2808     -424.42523      7418.5153      13.790838      23.886433      22.520345    
      6000   385.76182     -1466.3473      21.491224     -1444.8561     -2104.9295      7394.3017      13.775818      23.860416      22.495816    
      6500   404.09926     -1466.5278      22.512823     -1444.015      -1274.9965      7372.568       13.762308      23.837016      22.473754    
      7000   388.88449     -1464.6282      21.665191     -1442.963       1034.5308      7373.6921      13.763007      23.838228      22.474897    
      7500   386.178       -1467.5082      21.51441      -1445.9938      51.743598      7375.4802      13.76412       23.840154      22.476713    
      8000   393.56926     -1466.5875      21.926185     -1444.6613      3653.0154      7337.9125      13.74071       23.799608      22.438486    
      8500   398.04997     -1466.4813      22.175811     -1444.3055     -262.4349       7428.6273      13.797102      23.897281      22.530572    
      9000   415.13784     -1465.7573      23.127795     -1442.6295     -220.24544      7449.6381      13.810097      23.91979       22.551794    
      9500   439.70069     -1469.54        24.496219     -1445.0438      1965.1904      7312.6388      13.724916      23.772253      22.412695    
     10000   417.00175     -1468.1666      23.231636     -1444.935       1978.6604      7326.4645      13.733561      23.787225      22.426811    
     10500   418.55344     -1466.4114      23.318082     -1443.0933     -1315.9722      7392.3248      13.77459       23.85829       22.493811    
     11000   399.8978      -1469.1744      22.278755     -1446.8957     -737.64054      7355.6557      13.751776      23.818775      22.456557    
     11500   391.35213     -1467.4946      21.802667     -1445.6919      1758.8078      7367.2558      13.759001      23.83129       22.468355    
     12000   378.18875     -1466.5987      21.06932      -1445.5294     -1351.9817      7399.7874      13.779224      23.866315      22.501378    
     12500   385.67773     -1467.3106      21.486539     -1445.8241     -26.721341      7415.4468      13.788937      23.883139      22.517239    
     13000   391.40845     -1469.157       21.805804     -1447.3512      934.66654      7350.3878      13.748493      23.813088      22.451195    
     13500   392.88304     -1466.4153      21.887955     -1444.5273      1998.9648      7395.5393      13.776586      23.861747      22.497071    
     14000   382.06286     -1467.1051      21.285151     -1445.8199      1521.2412      7379.8919      13.766863      23.844907      22.481194    
     14500   372.21017     -1467.6742      20.736246     -1446.9379      1012.9069      7340.6014      13.742388      23.802515      22.441226    
     15000   394.48313     -1469.1734      21.977098     -1447.1963     -1177.3922      7307.4095      13.721644      23.766585      22.407351    
     15500   401.46796     -1466.5476      22.366231     -1444.1814      594.85433      7309.0563      13.722675      23.76837       22.409034    
     16000   409.44866     -1469.3902      22.810844     -1446.5794     -749.66532      7315.5751      13.726753      23.775434      22.415694    
     16500   378.75374     -1466.364       21.100796     -1445.2632     -1543.701       7364.7817      13.757461      23.828622      22.46584     
     17000   385.97837     -1469.5141      21.503288     -1448.0108      2445.5596      7303.1784      13.718995      23.761997      22.403025    
     17500   391.02494     -1468.8424      21.784439     -1447.058       3315.8462      7278.7812      13.703702      23.735507      22.378051    
     18000   400.6688      -1467.8395      22.321708     -1445.5178      1787.6592      7315.253       13.726552      23.775085      22.415365    
     18500   419.61954     -1469.1382      23.377476     -1445.7608      44.940675      7322.1372      13.730856      23.782541      22.422394    
     19000   374.83162     -1468.0386      20.88229      -1447.1563     -3264.6328      7342.2592      13.743423      23.804307      22.442915    
     19500   419.06096     -1471.6247      23.346357     -1448.2783      394.95195      7331.5582      13.736743      23.792736      22.432007    
     20000   382.12102     -1470.1424      21.288391     -1448.8541      3472.8811      7243.4134      13.68147       23.697001      22.341747    
     20500   412.69749     -1468.325       22.991841     -1445.3331      1473.88        7318.8235      13.728785      23.778953      22.419012    
     21000   388.9869      -1469.8211      21.670897     -1448.1503     -125.36829      7305.4715      13.720431      23.764483      22.40537     
     21500   389.14581     -1468.9006      21.67975      -1447.2208      471.38641      7263.7979      13.694292      23.71921       22.362685    
     22000   396.22516     -1471.3976      22.074148     -1449.3235      2599.0554      7225.4722      13.670165      23.67742       22.323285    
     22500   407.38124     -1467.4176      22.695666     -1444.7219      2468.8376      7291.5925      13.711737      23.749425      22.391172    
     23000   391.49666     -1470.4643      21.810718     -1448.6536      2.9064973      7357.7964      13.75311       23.821086      22.458735    
     23500   384.64515     -1469.7613      21.429013     -1448.3323     -244.29962      7336.0081      13.739521      23.797549      22.436544    
     24000   371.28001     -1469.557       20.684426     -1448.8726      2584.6637      7275.5834      13.701694      23.732031      22.374773    
     24500   412.21356     -1469.5045      22.96488      -1446.5396      3230.8799      7271.2334      13.698963      23.7273        22.370313    
     25000   398.76666     -1471.9545      22.215738     -1449.7387     -3377.9239      7415.1116      13.788729      23.882779      22.5169      
     25500   396.8042      -1471.7873      22.106408     -1449.6809      3824.3755      7297.3742      13.71536       23.7557        22.397089    
     26000   440.20041     -1471.2419      24.524059     -1446.7179      582.86971      7330.4731      13.736065      23.791562      22.4309      
     26500   399.79486     -1470.7309      22.27302      -1448.4579      3409.2464      7263.8823      13.694345      23.719302      22.362772    
     27000   396.23807     -1472.2373      22.074867     -1450.1625     -195.65973      7363.3013      13.756539      23.827025      22.464335    
     27500   389.09181     -1472.7581      21.676742     -1451.0814     -1325.6502      7397.0919      13.77755       23.863417      22.498645    
     28000   374.37743     -1472.1549      20.856987     -1451.2979     -937.62007      7397.5394      13.777828      23.863898      22.499099    
     28500   363.47996     -1472.0352      20.249877     -1451.7853     -1208.2933      7360.9257      13.75506       23.824462      22.461918    
     29000   385.85836     -1472.6681      21.496602     -1451.1715     -3635.8784      7417.1649      13.790002      23.884983      22.518978    
     29500   415.11819     -1470.9558      23.126701     -1447.8291      500.45428      7384.2007      13.769542      23.849547      22.485568    
     30000   408.19132     -1471.4469      22.740797     -1448.7061      4916.9101      7279.9409      13.704429      23.736768      22.379239    
     30500   376.23922     -1472.9982      20.960709     -1452.0375      3876.8083      7296.3949      13.714746      23.754637      22.396087    
     31000   415.04505     -1472.3086      23.122626     -1449.1859      1543.2691      7368.9862      13.760079      23.833155      22.470114    
     31500   411.84849     -1472.1164      22.944541     -1449.1719     -310.389        7373.3916      13.76282       23.837904      22.474591    
     32000   391.36038     -1475.1603      21.803126     -1453.3572      1319.2693      7365.4728      13.757891      23.829367      22.466543    
     32500   404.99357     -1473.5751      22.562646     -1451.0124     -144.59483      7361.2249      13.755246      23.824785      22.462223    
     33000   410.6334      -1473.5814      22.876847     -1450.7045      559.30549      7355.5361      13.751702      23.818646      22.456435    
     33500   402.6162      -1474.7391      22.4302       -1452.3089      1098.5419      7370.32        13.760909      23.834593      22.47147     
     34000   402.03512     -1473.0999      22.397828     -1450.702      -484.88782      7366.1879      13.758337      23.830138      22.46727     
     34500   386.45051     -1473.9675      21.529592     -1452.438       48.401882      7357.9461      13.753203      23.821247      22.458887    
     35000   392.97027     -1476.5559      21.892815     -1454.663      -136.84533      7357.907       13.753179      23.821205      22.458848    
     35500   390.82855     -1474.8182      21.773497     -1453.0447     -2280.346       7380.0488      13.766961      23.845076      22.481353    
     36000   385.73797     -1474.1729      21.489895     -1452.683       1969.5561      7357.8679      13.753155      23.821163      22.458808    
     36500   391.95695     -1473.5674      21.836362     -1451.7311     -1266.013       7414.9912      13.788654      23.88265       22.516778    
     37000   402.34133     -1475.9536      22.414887     -1453.5387     -598.91636      7366.4321      13.758489      23.830402      22.467518    
     37500   386.73987     -1474.8029      21.545712     -1453.2572     -2384.1204      7373.2311      13.76272       23.837731      22.474428    
     38000   393.72392     -1474.1295      21.934802     -1452.1947     -786.15133      7365.9584      13.758194      23.829891      22.467036    
     38500   405.65063     -1474.7397      22.599252     -1452.1404      786.42033      7374.4159      13.763457      23.839008      22.475632    
     39000   390.24782     -1476.8047      21.741144     -1455.0636     -2793.7441      7379.6366      13.766705      23.844632      22.480935    
     39500   390.60246     -1474.7497      21.760901     -1452.9888      2779.2876      7293.6772      13.713043      23.751688      22.393306    
     40000   389.45431     -1474.3857      21.696937     -1452.6888     -514.24028      7352.8152      13.750006      23.815709      22.453666    
     40500   414.57767     -1474.2         23.096587     -1451.1034      171.83532      7342.5103      13.743579      23.804578      22.443171    
     41000   415.26429     -1475.9233      23.13484      -1452.7885     -28.183513      7345.8652      13.745672      23.808203      22.446589    
     41500   401.62092     -1474.007       22.374752     -1451.6323      4809.1764      7298.7841      13.716243      23.75723       22.398531    
     42000   407.99181     -1476.8767      22.729682     -1454.147       1241.3932      7297.1524      13.715221      23.755459      22.396862    
     42500   378.5802      -1474.9822      21.091128     -1453.891       8.8211425      7368.4507      13.759745      23.832578      22.46957     
     43000   396.56725     -1476.3813      22.093206     -1454.2881      3522.2108      7312.8419      13.725043      23.772473      22.412902    
     43500   391.19247     -1476.2339      21.793772     -1454.4401     -1464.4939      7350.7179      13.748698      23.813444      22.451531    
     44000   397.59842     -1475.1256      22.150654     -1452.9749      1726.6419      7290.112       13.710809      23.747817      22.389657    
     44500   401.29407     -1477.13        22.356543     -1454.7735     -2617.5784      7280.2575      13.704628      23.737112      22.379564    
     45000   391.71891     -1479.7019      21.8231       -1457.8788     -909.26929      7288.6447      13.709889      23.746224      22.388155    
     45500   398.06251     -1476.9889      22.176509     -1454.8123      2776.3658      7299.4507      13.716661      23.757953      22.399213    
     46000   389.09091     -1475.022       21.676691     -1453.3454      2057.774       7344.7616      13.744984      23.807011      22.445465    
     46500   423.16349     -1477.7642      23.574913     -1454.1893      507.92331      7326.0443      13.733298      23.78677       22.426382    
     47000   392.18705     -1475.8332      21.849181     -1453.984       3019.978       7313.1435      13.725232      23.7728        22.41321     
     47500   400.07219     -1478.0813      22.288471     -1455.7928     -757.44473      7349.54        13.747964      23.812172      22.450331    
     48000   409.84453     -1477.5111      22.832899     -1454.6782     -1665.8659      7343.7155      13.744331      23.80588       22.444399    
     48500   400.84579     -1475.6765      22.331569     -1453.3449     -2454.4288      7362.7631      13.756204      23.826444      22.463787    
     49000   382.82509     -1475.3677      21.327615     -1454.0401      903.13034      7303.2193      13.719021      23.762041      22.403067    
     49500   418.03714     -1477.9165      23.289319     -1454.6271      3569.2146      7249.1864      13.685104      23.703295      22.347681    
     50000   390.32154     -1477.6921      21.745251     -1455.9469      2859.6159      7257.3073      13.690212      23.712143      22.356023    
Loop time of 295.796 on 8 procs for 50000 steps with 432 atoms

Performance: 14.605 ns/day, 1.643 hours/ns, 169.035 timesteps/s, 73.023 katom-step/s
89.0% CPU use with 1 MPI tasks x 8 OpenMP threads

MPI task timing breakdown:
Section |  min time  |  avg time  |  max time  |%varavg| %total
---------------------------------------------------------------
Pair    | 254.77     | 254.77     | 254.77     |   0.0 | 86.13
Neigh   | 0.059284   | 0.059284   | 0.059284   |   0.0 |  0.02
Comm    | 0.33688    | 0.33688    | 0.33688    |   0.0 |  0.11
Output  | 0.006408   | 0.006408   | 0.006408   |   0.0 |  0.00
Modify  | 40.553     | 40.553     | 40.553     |   0.0 | 13.71
Other   |            | 0.0658     |            |       |  0.02

Nlocal:            432 ave         432 max         432 min
Histogram: 1 0 0 0 0 0 0 0 0 0
Nghost:           2251 ave        2251 max        2251 min
Histogram: 1 0 0 0 0 0 0 0 0 0
Neighs:          27525 ave       27525 max       27525 min
Histogram: 1 0 0 0 0 0 0 0 0 0
FullNghs:        55050 ave       55050 max       55050 min
Histogram: 1 0 0 0 0 0 0 0 0 0

Total # of neighbors = 55050
Ave neighs/atom = 127.43056
Neighbor list builds = 72
Dangerous builds = 0

=== FINAL RESULTS: HCP at 400 K ===
Atoms: 432 | PE/atom: -3.41899139011023 eV/atom
WARNING: Detected non-ASCII characters in input. Will try to continue by replacing with ASCII equivalents where known. (src/input.cpp:479)
Volume: 7257.30734981216 …³ | Area: 324.624262308701 ²
==========================================
HCP 400 432 -3.41899139011023 7257.30734981216 13.69021202256 23.7121427903202 22.3560226158045 324.624262308701
Simulation complete!
Total wall time: 0:07:01
