LAMMPS (10 Sep 2025)
  using 8 OpenMP thread(s) per MPI task
Loaded 1 plugins from C:\Users\J.Shiva\AppData\Local\LAMMPS 64-bit 10Sep2025\plugins
using multi-threaded neighbor list subroutines
Reading data file ...
  orthogonal box = (0 0 0) to (16.620545 28.787628 27.141236)
  1 by 1 by 1 MPI processor grid
  reading atoms ...
  432 atoms
  read_data CPU = 0.005 seconds
=== STAGE 1: Energy Minimization ===
Switching to 'neigh_modify every 1 delay 0 check yes' setting during minimization
No /omp style for force computation currently active
Neighbor list info ...
  update: every = 1 steps, delay = 0 steps, check = yes
  max neighbors/atom: 4000, page size: 100000
  master list distance cutoff = 8
  ghost atom cutoff = 8
  binsize = 4, bins = 5 8 7
  2 neighbor lists, perpetual/occasional/extra = 2 0 0
  (1) pair meam, perpetual
      attributes: full, newton on, omp
      pair build: full/bin/atomonly/omp
      stencil: full/bin/3d
      bin: standard
  (2) pair meam, perpetual, half/full from (1)
      attributes: half, newton on, omp
      pair build: halffull/newton/omp
      stencil: none
      bin: none
Setting up cg style minimization ...
  Unit style    : metal
  Current step  : 0
Per MPI rank memory allocation (min/avg/max) = 19.3 | 19.3 | 19.3 Mbytes
   Step          Temp          PotEng         KinEng         TotEng         Press          Volume           Lx             Ly             Lz      
         0   0             -1088.7342      0             -1088.7342     -77438.835      12986.161      16.620545      28.787628      27.141236    
       112   0             -1295.4626      0             -1295.4626     -27336.063      12986.161      16.620545      28.787628      27.141236    
Loop time of 0.54831 on 8 procs for 112 steps with 432 atoms

94.0% CPU use with 1 MPI tasks x 8 OpenMP threads

Minimization stats:
  Stopping criterion = energy tolerance
  Energy initial, next-to-last, final = 
     -1088.73416660111  -1295.46217009855  -1295.46263112529
  Force two-norm initial, final = 7.0421711 3.5954674
  Force max component initial, final = 0.61699478 1.6860854
  Final line search alpha, max atom move = 0.23872826 0.40251623
  Iterations, force evaluations = 112 192

MPI task timing breakdown:
Section |  min time  |  avg time  |  max time  |%varavg| %total
---------------------------------------------------------------
Pair    | 0.50391    | 0.50391    | 0.50391    |   0.0 | 91.90
Neigh   | 0.004116   | 0.004116   | 0.004116   |   0.0 |  0.75
Comm    | 0.001273   | 0.001273   | 0.001273   |   0.0 |  0.23
Output  | 0          | 0          | 0          |   0.0 |  0.00
Modify  | 0.035425   | 0.035425   | 0.035425   |   0.0 |  6.46
Other   |            | 0.003586   |            |       |  0.65

Nlocal:            432 ave         432 max         432 min
Histogram: 1 0 0 0 0 0 0 0 0 0
Nghost:           1695 ave        1695 max        1695 min
Histogram: 1 0 0 0 0 0 0 0 0 0
Neighs:          15092 ave       15092 max       15092 min
Histogram: 1 0 0 0 0 0 0 0 0 0
FullNghs:        30184 ave       30184 max       30184 min
Histogram: 1 0 0 0 0 0 0 0 0 0

Total # of neighbors = 30184
Ave neighs/atom = 69.87037
Neighbor list builds = 6
Dangerous builds = 0
Minimized PE/atom: -2.9987560905678 eV/atom
=== STAGE 2: NPT Equilibration at 650 K ===
No /omp style for force computation currently active
Setting up Verlet run ...
  Unit style    : metal
  Current step  : 0
  Time step     : 0.002
Per MPI rank memory allocation (min/avg/max) = 18.17 | 18.17 | 18.17 Mbytes
   Step          Temp          PotEng         KinEng         TotEng         Press          Volume           Lx             Ly             Lz      
         0   650           -1295.4626      36.21223      -1259.2504     -24357.59       12986.161      16.620545      28.787628      27.141236    
       500   742.21679     -1346.745       41.349731     -1305.3953     -5647.7527      9058.1361      14.740016      25.530456      24.070345    
      1000   659.87552     -1381.9397      36.762406     -1345.1772     -1624.9014      8454.2092      14.40487       24.949966      23.523054    
      1500   649.27019     -1388.4894      36.171571     -1352.3178     -764.86353      8275.7402      14.302785      24.773151      23.356351    
      2000   640.93155     -1395.7653      35.707016     -1360.0583      289.78957      8070.1405      14.183346      24.566276      23.161307    
      2500   686.24633     -1399.2948      38.231553     -1361.0633     -281.93723      8033.8018      14.162026      24.529348      23.126491    
      3000   604.41412     -1405.7914      33.672589     -1372.1188     -4897.3327      7932.876       14.102471      24.426197      23.029239    
      3500   600.26525     -1409.5918      33.441451     -1376.1503     -920.24493      7858.9442      14.058524      24.350078      22.957474    
      4000   668.64694     -1415.0026      37.251072     -1377.7516     -431.12841      7812.2693      14.030638      24.301777      22.911935    
      4500   629.16833     -1416.733       35.051674     -1381.6813     -1471.944       7760.8319      13.999776      24.248324      22.861539    
      5000   636.14502     -1418.6961      35.440353     -1383.2558     -979.40471      7709.7186      13.968974      24.194973      22.811239    
      5500   676.34222     -1422.2897      37.679784     -1384.61       -4414.4671      7725.3409      13.978403      24.211304      22.826636    
      6000   680.90005     -1420.2981      37.933706     -1382.3644     -184.23163      7597.6075      13.900933      24.077122      22.700129    
      6500   628.98423     -1425.9602      35.041417     -1390.9188      115.12017      7464.6974      13.819396      23.935897      22.56698     
      7000   678.99172     -1426.568       37.827391     -1388.7406     -694.67884      7445.1156      13.807302      23.914948      22.547229    
      7500   680.08347     -1423.8472      37.888213     -1385.959      -6321.1415      7502.6818      13.842797      23.976427      22.605193    
      8000   593.12628     -1423.8592      33.043731     -1390.8155     -1676.0106      7468.621       13.821817      23.940089      22.570933    
      8500   693.9454      -1431.6049      38.660477     -1392.9445     -201.42899      7391.0536      13.7738        23.856922      22.492522    
      9000   664.53666     -1428.6522      37.022083     -1391.6301     -2849.9657      7411.0613      13.786218      23.87843       22.512799    
      9500   637.13406     -1435.8564      35.495454     -1400.361      -859.21464      7365.3621      13.757823      23.829248      22.46643     
     10000   642.1713      -1435.6174      35.776084     -1399.8413     -4926.9186      7423.1825      13.79373       23.891441      22.525066    
     10500   621.92269     -1433.4288      34.648011     -1398.7808      533.10297      7428.3605      13.796936      23.896995      22.530303    
     11000   645.86178     -1439.357       35.981685     -1403.3753      5831.468       7290.3594      13.710964      23.748086      22.38991     
     11500   624.71173     -1437.1403      34.803392     -1402.3369     -862.2489       7395.0696      13.776295      23.861242      22.496595    
     12000   653.97234     -1437.8318      36.433533     -1401.3983     -329.77026      7355.2831      13.751544      23.818373      22.456178    
     12500   640.19544     -1440.5672      35.666007     -1404.9012      257.64897      7272.5266      13.699775      23.728707      22.371639    
     13000   627.25071     -1443.8648      34.944841     -1408.9199      1725.7652      7335.2981      13.739078      23.796781      22.435821    
     13500   690.82905     -1445.0487      38.486862     -1406.5619      2129.649       7237.2331      13.677578      23.690259      22.335391    
     14000   627.56661     -1442.8222      34.96244      -1407.8598      2026.1884      7286.6745      13.708653      23.744084      22.386137    
     14500   685.63346     -1448.6435      38.19741      -1410.4461     -1791.3914      7319.3609      13.729121      23.779535      22.41956     
     15000   631.57706     -1447.2507      35.185867     -1412.0649     -1606.2829      7346.3203      13.745956      23.808695      22.447052    
     15500   640.63841     -1449.704       35.690685     -1414.0133      1689.4818      7350.4219      13.748514      23.813125      22.451229    
     16000   637.26533     -1448.8766      35.502767     -1413.3738      1713.2957      7361.6232      13.755494      23.825215      22.462628    
     16500   642.16363     -1452.2345      35.775657     -1416.4588     -8808.4814      7477.5417      13.827318      23.949617      22.579916    
     17000   661.863       -1449.1142      36.873131     -1412.2411      1385.9021      7476.6449      13.826765      23.94866       22.579013    
     17500   636.86511     -1451.6875      35.48047      -1416.2071      1399.0924      7412.7545      13.787268      23.880248      22.514514    
     18000   623.1422      -1452.5718      34.715951     -1417.8558     -971.47326      7435.4719      13.801338      23.904618      22.53749     
     18500   629.12986     -1453.2054      35.04953      -1418.1559     -3409.8109      7406.6234      13.783465      23.873663      22.508305    
     19000   683.15281     -1453.726       38.05921      -1415.6668      1154.2872      7311.2035      13.724018      23.770697      22.411228    
     19500   668.77        -1456.2613      37.257928     -1419.0033      1055.4168      7257.3386      13.690232      23.712177      22.356055    
     20000   618.92131     -1452.0949      34.480801     -1417.6141     -2323.3125      7375.7826      13.764308      23.84048       22.47702     
Loop time of 121.844 on 8 procs for 20000 steps with 432 atoms

Performance: 28.364 ns/day, 0.846 hours/ns, 164.145 timesteps/s, 70.911 katom-step/s
89.3% CPU use with 1 MPI tasks x 8 OpenMP threads

MPI task timing breakdown:
Section |  min time  |  avg time  |  max time  |%varavg| %total
---------------------------------------------------------------
Pair    | 104.85     | 104.85     | 104.85     |   0.0 | 86.05
Neigh   | 0.1729     | 0.1729     | 0.1729     |   0.0 |  0.14
Comm    | 0.14373    | 0.14373    | 0.14373    |   0.0 |  0.12
Output  | 0.002827   | 0.002827   | 0.002827   |   0.0 |  0.00
Modify  | 16.635     | 16.635     | 16.635     |   0.0 | 13.65
Other   |            | 0.04161    |            |       |  0.03

Nlocal:            432 ave         432 max         432 min
Histogram: 1 0 0 0 0 0 0 0 0 0
Nghost:           2286 ave        2286 max        2286 min
Histogram: 1 0 0 0 0 0 0 0 0 0
Neighs:          27201 ave       27201 max       27201 min
Histogram: 1 0 0 0 0 0 0 0 0 0
FullNghs:        54402 ave       54402 max       54402 min
Histogram: 1 0 0 0 0 0 0 0 0 0

Total # of neighbors = 54402
Ave neighs/atom = 125.93056
Neighbor list builds = 209
Dangerous builds = 0
=== STAGE 3: NPT Production at 650 K ===
No /omp style for force computation currently active
Setting up Verlet run ...
  Unit style    : metal
  Current step  : 0
  Time step     : 0.001
Per MPI rank memory allocation (min/avg/max) = 18.44 | 18.44 | 18.44 Mbytes
   Step          Temp          PotEng         KinEng         TotEng         Press          Volume           Lx             Ly             Lz      
         0   618.92131     -1452.0949      34.480801     -1417.6141     -2323.3125      7375.7826      13.764308      23.84048       22.47702     
       500   645.78451     -1455.1381      35.97738      -1419.1607      2823.7912      7326.0643      13.733311      23.786792      22.426402    
      1000   634.37787     -1458.1271      35.341903     -1422.7852     -683.55028      7385.721       13.770487      23.851183      22.487111    
      1500   677.73298     -1458.7219      37.757265     -1420.9647      994.91983      7374.6292      13.76359       23.839237      22.475849    
      2000   669.7947      -1456.219       37.315015     -1418.904       4360.9109      7348.3906      13.747247      23.810931      22.449161    
      2500   663.0966      -1459.3323      36.941856     -1422.3904      3995.8824      7319.2679      13.729063      23.779434      22.419465    
      3000   648.09611     -1455.6867      36.106162     -1419.5805     -3710.8725      7500.7849      13.84163       23.974407      22.603287    
      3500   649.83675     -1455.5087      36.203135     -1419.3056     -3943.8155      7501.3978      13.842007      23.97506       22.603903    
      4000   636.15576     -1459.5904      35.440952     -1424.1495     -1891.5215      7387.8583      13.771815      23.853484      22.48928     
      4500   605.05058     -1459.8244      33.708047     -1426.1163      14.833312      7346.2582      13.745917      23.808627      22.446989    
      5000   687.17808     -1461.5517      38.283462     -1423.2683     -4587.785       7319.848       13.729425      23.780062      22.420058    
      5500   655.47722     -1462.0693      36.517372     -1425.5519      3606.4396      7232.1265      13.67436       23.684686      22.330136    
      6000   648.84048     -1462.5297      36.147631     -1426.3821      4455.6208      7218.1725      13.66556       23.669444      22.315765    
      6500   652.72759     -1466.2124      36.364186     -1429.8482     -2679.5729      7280.9342      13.705053      23.737847      22.380257    
      7000   669.04932     -1463.4647      37.273489     -1426.1912     -1693.9956      7250.478       13.685916      23.704702      22.349008    
      7500   648.47724     -1460.7884      36.127395     -1424.661       608.88715      7353.2266      13.750262      23.816153      22.454084    
      8000   628.20476     -1467.7523      34.997992     -1432.7543      3485.7985      7200.7251      13.65454       23.650357      22.297771    
      8500   618.00825     -1464.0837      34.429933     -1429.6537      3933.3748      7234.3793      13.67578       23.687145      22.332455    
      9000   669.28515     -1462.6134      37.286627     -1425.3267      764.07266      7291.2554      13.711525      23.749059      22.390827    
      9500   656.46307     -1462.28        36.572295     -1425.7077     -332.73735      7328.0289      13.734538      23.788918      22.428407    
     10000   644.684       -1464.3236      35.916069     -1428.4075      1202.7843      7257.4364      13.690293      23.712283      22.356155    
     10500   691.37731     -1466.9479      38.517406     -1428.4305      1416.8359      7210.277       13.660575      23.66081       22.307626    
     11000   609.67341     -1464.3746      33.96559      -1430.409       2517.3502      7244.8927      13.682401      23.698614      22.343268    
     11500   656.99261     -1463.3246      36.601796     -1426.7228      4930.1517      7227.5967      13.671504      23.67974       22.325473    
     12000   674.83823     -1461.6236      37.595995     -1424.0276      848.15086      7232.3443      13.674497      23.684924      22.33036     
     12500   662.73138     -1466.2665      36.921509     -1429.3449      704.02474      7178.7195      13.640616      23.626241      22.275033    
     13000   639.66732     -1466.8758      35.636584     -1431.2392      2236.4112      7195.5076      13.651241      23.644644      22.292384    
     13500   694.55566     -1468.339       38.694476     -1429.6445      136.97658      7251.7524      13.686718      23.706091      22.350317    
     14000   652.86366     -1461.7148      36.371767     -1425.343       452.96798      7230.4011      13.673272      23.682802      22.32836     
     14500   632.02543     -1462.2171      35.210846     -1427.0063      434.59347      7294.8419      13.713773      23.752952      22.394498    
     15000   658.14018     -1468.0411      36.665728     -1431.3754     -535.94588      7197.2162      13.652322      23.646515      22.294148    
     15500   624.60939     -1465.2876      34.79769      -1430.49        820.5377       7231.1181      13.673724      23.683585      22.329098    
     16000   648.87569     -1462.2355      36.149593     -1426.0859      3266.1603      7167.0801      13.63324       23.613465      22.262988    
     16500   585.10401     -1466.0272      32.596801     -1433.4304      7495.2515      7046.7095      13.556486      23.480522      22.137649    
     17000   601.07785     -1463.0115      33.486722     -1429.5248     -2314.781       7250.6376      13.686017      23.704876      22.349172    
     17500   619.47625     -1466.1691      34.511717     -1431.6574     -409.34821      7197.5446      13.65253       23.646875      22.294487    
     18000   665.55845     -1467.434       37.079008     -1430.3549      2426.8197      7153.2571      13.62447       23.598274      22.248666    
     18500   640.73479     -1466.296       35.696054     -1430.6         4400.0474      7202.8677      13.655894      23.652703      22.299982    
     19000   619.90499     -1467.8525      34.535603     -1433.3169     -953.63931      7164.5138      13.631613      23.610646      22.260331    
     19500   654.64311     -1466.2961      36.470902     -1429.8252      1595.5035      7201.7532      13.65519       23.651483      22.298832    
     20000   620.25157     -1465.1413      34.554911     -1430.5863      5303.1392      7163.5748      13.631017      23.609615      22.259358    
     20500   635.09677     -1468.6833      35.381954     -1433.3013      1056.3776      7206.4166      13.658137      23.656587      22.303644    
     21000   639.41329     -1471.5829      35.622432     -1435.9605     -896.21682      7120.271       13.603495      23.561945      22.214415    
     21500   615.10353     -1470.3831      34.268108     -1436.115      -2198.6513      7120.1381      13.603411      23.561798      22.214277    
     22000   729.33128     -1466.7141      40.631864     -1426.0823      2646.6309      7099.1676      13.590042      23.538644      22.192446    
     22500   651.99005     -1470.8971      36.323098     -1434.574       969.2519       7036.2835      13.549797      23.468936      22.126725    
     23000   660.06432     -1467.8261      36.772924     -1431.0531     -1584.1525      7179.898       13.641363      23.627534      22.276252    
     23500   682.85453     -1467.3149      38.042592     -1429.2723     -348.90401      7149.1028      13.621832      23.593705      22.244358    
     24000   649.79371     -1474.5345      36.200737     -1438.3338      4923.2577      7070.5852      13.571779      23.507011      22.162623    
     24500   661.32433     -1469.6046      36.843121     -1432.7615     -3646.5224      7198.3196      13.65302       23.647723      22.295287    
     25000   659.27156     -1468.0598      36.728759     -1431.331      -2927.7823      7236.4852      13.677106      23.689443      22.334621    
     25500   641.85607     -1469.0839      35.758522     -1433.3254      837.30444      7157.5052      13.627166      23.602945      22.25307     
     26000   656.76754     -1473.8947      36.589257     -1437.3055      1789.786       7143.2815      13.618134      23.587299      22.238319    
     26500   651.94711     -1471.9221      36.320705     -1435.6014      3785.5059      7106.0663      13.594443      23.546266      22.199633    
     27000   647.7885      -1471.1147      36.089024     -1435.0257      1782.6275      7048.9754      13.557939      23.483039      22.140021    
     27500   637.98644     -1469.1181      35.542941     -1433.5751     -3718.7504      7202.3307      13.655555      23.652115      22.299428    
     28000   681.56521     -1465.5784      37.970763     -1427.6076      2067.1715      7187.0879      13.645915      23.635418      22.283686    
     28500   686.00542     -1469.3701      38.218132     -1431.152      -2154.8164      7224.51        13.669558      23.676369      22.322295    
     29000   649.4397      -1470.0419      36.181014     -1433.8609      387.93916      7163.5265      13.630987      23.609561      22.259308    
     29500   640.293       -1474.8166      35.671442     -1439.1451     -1269.8917      7120.1018      13.603387      23.561758      22.214239    
     30000   609.66735     -1473.0596      33.965253     -1439.0944     -2221.7126      7087.2817      13.582454      23.5255        22.180054    
     30500   655.7085      -1470.266       36.530256     -1433.7357     -2387.3603      7135.2764      13.613045      23.578485      22.230009    
     31000   650.89305     -1472.1161      36.261982     -1435.8542      2083.3531      7085.0288      13.581014      23.523007      22.177704    
     31500   643.23026     -1472.7028      35.83508      -1436.8677     -881.93409      7153.7043      13.624754      23.598766      22.24913     
     32000   682.50263     -1469.6893      38.022988     -1431.6663     -682.97359      7145.4646      13.619521      23.589702      22.240584    
     32500   670.51157     -1469.3786      37.354952     -1432.0236      6930.6571      7105.3367      13.593978      23.54546       22.198873    
     33000   646.62438     -1475.2589      36.02417      -1439.2347      3406.1896      7055.4476      13.562087      23.490224      22.146795    
     33500   614.59548     -1472.7107      34.239804     -1438.4709     -104.91613      7171.02        13.635738      23.617791      22.267067    
     34000   638.17023     -1471.1495      35.55318      -1435.5963     -4600.9565      7170.4625      13.635385      23.617179      22.26649     
     34500   625.99733     -1473.54        34.875014     -1438.665       622.79692      7084.9528      13.580966      23.522923      22.177624    
     35000   682.95559     -1470.5786      38.048222     -1432.5304      1324.9987      7133.9628      13.612209      23.577038      22.228645    
     35500   675.12287     -1472.5146      37.611853     -1434.9028     -1078.2881      7139.4468      13.615696      23.583078      22.234339    
     36000   664.93865     -1472.0199      37.044479     -1434.9754     -974.97301      7220.5516      13.667061      23.672044      22.318217    
     36500   661.98679     -1472.3418      36.880027     -1435.4617     -5492.9465      7255.7395      13.689226      23.710435      22.354413    
     37000   672.78206     -1469.9612      37.481444     -1432.4797     -2397.0067      7192.7248      13.649481      23.641595      22.28951     
     37500   618.84015     -1471.4676      34.476279     -1436.9913      3983.993       7074.7336      13.574433      23.511608      22.166956    
     38000   642.49114     -1473.0555      35.793902     -1437.2616      8404.3095      7109.3127      13.596513      23.549851      22.203013    
     38500   659.81737     -1474.3233      36.759166     -1437.5641      592.32368      7149.3226      13.621972      23.593947      22.244586    
     39000   672.9549      -1474.0424      37.491073     -1436.5514     -2722.5548      7100.4621      13.590868      23.540075      22.193795    
     39500   639.31167     -1471.8534      35.616771     -1436.2366      1880.5428      7091.7332      13.585297      23.530424      22.184697    
     40000   682.37289     -1469.2128      38.015759     -1431.197       4977.0566      7099.0574      13.589972      23.538522      22.192332    
     40500   642.94327     -1471.0565      35.819091     -1435.2374     -614.83036      7171.2112      13.635859      23.618001      22.267265    
     41000   636.3017      -1473.3537      35.449082     -1437.9046     -3482.3504      7181.3086      13.642256      23.629081      22.277711    
     41500   699.77155     -1473.653       38.985058     -1434.6679      1310.698       7127.5342      13.608119      23.569954      22.221966    
     42000   649.91374     -1474.5732      36.207424     -1438.3658     -1810.8444      7118.3146      13.602249      23.559787      22.21238     
     42500   628.19949     -1470.9311      34.997699     -1435.9334     -346.79674      7158.6367      13.627884      23.604188      22.254242    
     43000   601.42179     -1477.4395      33.505883     -1443.9336      1294.1144      7058.1733      13.563833      23.493248      22.149647    
     43500   681.44231     -1473.6105      37.963916     -1435.6466      417.52207      7102.8579      13.592397      23.542722      22.196291    
     44000   654.36607     -1470.5447      36.455468     -1434.0893      1888.3978      7094.3044      13.586938      23.533268      22.187378    
     44500   679.0386      -1476.0697      37.830003     -1438.2397      63.341656      7074.6818      13.5744        23.51155       22.166902    
     45000   664.96778     -1472.7159      37.046102     -1435.6698     -4180.4973      7155.2671      13.625746      23.600484      22.25075     
     45500   654.82355     -1473.9326      36.480955     -1437.4516     -2187.0383      7088.1414      13.583003      23.526451      22.180951    
     46000   654.29071     -1473.1391      36.45127      -1436.6878     -3075.9066      7046.1872      13.556151      23.479942      22.137102    
     46500   669.67457     -1469.3372      37.308322     -1432.0289      1816.3491      7089.8929      13.584122      23.528389      22.182778    
     47000   656.43069     -1474.7922      36.57049      -1438.2217     -20.171471      7027.4534      13.544126      23.459115      22.117466    
     47500   648.55289     -1475.7278      36.131609     -1439.5962      3028.5269      7006.8588      13.530883      23.436176      22.095839    
     48000   661.69245     -1470.533       36.863629     -1433.6694     -860.9541       7093.4394      13.586386      23.532311      22.186476    
     48500   657.06479     -1470.298       36.605817     -1433.6922      374.84312      7116.7674      13.601264      23.55808       22.210771    
     49000   664.71694     -1473.201       37.032127     -1436.1689     -2342.8268      7076.0733      13.57529       23.513092      22.168355    
     49500   633.20031     -1468.6835      35.2763       -1433.4072     -1267.3989      7120.5092      13.603647      23.562208      22.214662    
     50000   656.4939      -1468.5185      36.574012     -1431.9445     -10509.176      7248.8561      13.684896      23.702935      22.347341    
Loop time of 286.009 on 8 procs for 50000 steps with 432 atoms

Performance: 15.104 ns/day, 1.589 hours/ns, 174.820 timesteps/s, 75.522 katom-step/s
90.1% CPU use with 1 MPI tasks x 8 OpenMP threads

MPI task timing breakdown:
Section |  min time  |  avg time  |  max time  |%varavg| %total
---------------------------------------------------------------
Pair    | 248.75     | 248.75     | 248.75     |   0.0 | 86.97
Neigh   | 0.19844    | 0.19844    | 0.19844    |   0.0 |  0.07
Comm    | 0.33631    | 0.33631    | 0.33631    |   0.0 |  0.12
Output  | 0.006067   | 0.006067   | 0.006067   |   0.0 |  0.00
Modify  | 36.646     | 36.646     | 36.646     |   0.0 | 12.81
Other   |            | 0.07361    |            |       |  0.03

Nlocal:            432 ave         432 max         432 min
Histogram: 1 0 0 0 0 0 0 0 0 0
Nghost:           2310 ave        2310 max        2310 min
Histogram: 1 0 0 0 0 0 0 0 0 0
Neighs:          28002 ave       28002 max       28002 min
Histogram: 1 0 0 0 0 0 0 0 0 0
FullNghs:        56004 ave       56004 max       56004 min
Histogram: 1 0 0 0 0 0 0 0 0 0

Total # of neighbors = 56004
Ave neighs/atom = 129.63889
Neighbor list builds = 239
Dangerous builds = 0

=== FINAL RESULTS: HCP at 650 K ===
Atoms: 432 | PE/atom: -3.40787486392164 eV/atom
WARNING: Detected non-ASCII characters in input. Will try to continue by replacing with ASCII equivalents where known. (src/input.cpp:479)
Volume: 7248.85606976296 …³ | Area: 324.372192390743 ²
==========================================
HCP 650 432 -3.40787486392164 7248.85606976296 13.684895782857 23.7029347930499 22.3473412327247 324.372192390743
Simulation complete!
Total wall time: 0:06:48
