LAMMPS (10 Sep 2025)
  using 8 OpenMP thread(s) per MPI task
Loaded 1 plugins from C:\Users\J.Shiva\AppData\Local\LAMMPS 64-bit 10Sep2025\plugins
using multi-threaded neighbor list subroutines
Reading data file ...
  orthogonal box = (0 0 0) to (16.620545 28.787628 27.141236)
  1 by 1 by 1 MPI processor grid
  reading atoms ...
  432 atoms
  read_data CPU = 0.024 seconds
=== STAGE 1: Energy Minimization ===
Switching to 'neigh_modify every 1 delay 0 check yes' setting during minimization
No /omp style for force computation currently active
Neighbor list info ...
  update: every = 1 steps, delay = 0 steps, check = yes
  max neighbors/atom: 4000, page size: 100000
  master list distance cutoff = 8
  ghost atom cutoff = 8
  binsize = 4, bins = 5 8 7
  2 neighbor lists, perpetual/occasional/extra = 2 0 0
  (1) pair meam, perpetual
      attributes: full, newton on, omp
      pair build: full/bin/atomonly/omp
      stencil: full/bin/3d
      bin: standard
  (2) pair meam, perpetual, half/full from (1)
      attributes: half, newton on, omp
      pair build: halffull/newton/omp
      stencil: none
      bin: none
Setting up cg style minimization ...
  Unit style    : metal
  Current step  : 0
Per MPI rank memory allocation (min/avg/max) = 19.27 | 19.27 | 19.27 Mbytes
   Step          Temp          PotEng         KinEng         TotEng         Press          Volume           Lx             Ly             Lz      
         0   0             -1093.324       0             -1093.324      -38999.019      12986.161      16.620545      28.787628      27.141236    
       209   0             -1319.877       0             -1319.877      -21411.673      12986.161      16.620545      28.787628      27.141236    
Loop time of 1.22441 on 8 procs for 209 steps with 432 atoms

89.3% CPU use with 1 MPI tasks x 8 OpenMP threads

Minimization stats:
  Stopping criterion = energy tolerance
  Energy initial, next-to-last, final = 
     -1093.32398733455  -1319.87670823751  -1319.87704856878
  Force two-norm initial, final = 15.3172 1.2856311
  Force max component initial, final = 2.0815367 0.65964069
  Final line search alpha, max atom move = 0.98163089 0.64752367
  Iterations, force evaluations = 209 478

MPI task timing breakdown:
Section |  min time  |  avg time  |  max time  |%varavg| %total
---------------------------------------------------------------
Pair    | 1.1325     | 1.1325     | 1.1325     |   0.0 | 92.49
Neigh   | 0.005979   | 0.005979   | 0.005979   |   0.0 |  0.49
Comm    | 0.002262   | 0.002262   | 0.002262   |   0.0 |  0.18
Output  | 0          | 0          | 0          |   0.0 |  0.00
Modify  | 0.078441   | 0.078441   | 0.078441   |   0.0 |  6.41
Other   |            | 0.005257   |            |       |  0.43

Nlocal:            432 ave         432 max         432 min
Histogram: 1 0 0 0 0 0 0 0 0 0
Nghost:           1642 ave        1642 max        1642 min
Histogram: 1 0 0 0 0 0 0 0 0 0
Neighs:          15255 ave       15255 max       15255 min
Histogram: 1 0 0 0 0 0 0 0 0 0
FullNghs:        30510 ave       30510 max       30510 min
Histogram: 1 0 0 0 0 0 0 0 0 0

Total # of neighbors = 30510
Ave neighs/atom = 70.625
Neighbor list builds = 10
Dangerous builds = 0
Minimized PE/atom: -3.05527094576105 eV/atom
=== STAGE 2: NPT Equilibration at 400 K ===
No /omp style for force computation currently active
Setting up Verlet run ...
  Unit style    : metal
  Current step  : 0
  Time step     : 0.002
Per MPI rank memory allocation (min/avg/max) = 18.15 | 18.15 | 18.15 Mbytes
   Step          Temp          PotEng         KinEng         TotEng         Press          Volume           Lx             Ly             Lz      
         0   400           -1319.877       22.284449     -1297.5926     -19578.767      12986.161      16.620545      28.787628      27.141236    
       500   529.26462     -1355.3613      29.485926     -1325.8754     -59.874711      9316.0498      14.878607      25.770503      24.296663    
      1000   434.9474      -1386.2545      24.231408     -1362.0231      286.70613      8493.7089      14.427269      24.988763      23.559631    
      1500   406.2301      -1397.7036      22.631535     -1375.0721     -718.43575      8246.6381      14.286         24.744078      23.32894     
      2000   384.18529     -1404.1348      21.403394     -1382.7314      1277.8252      8041.4618      14.166525      24.537141      23.133839    
      2500   384.47644     -1408.531       21.419614     -1387.1114     -817.60909      8016.309       14.151739      24.511531      23.109693    
      3000   405.04622     -1408.8457      22.56558      -1386.2801     -1177.784       8059.3844      14.177042      24.555357      23.151013    
      3500   411.07174     -1414.6284      22.901268     -1391.7271      429.69653      7918.754       14.094098      24.411694      23.015566    
      4000   400.1506      -1419.4374      22.292839     -1397.1445      343.22381      7722.221       13.976521      24.208044      22.823563    
      4500   402.21862     -1420.4839      22.408051     -1398.0758     -1699.2327      7800.2633      14.023446      24.289322      22.900192    
      5000   411.05849     -1423.8177      22.90053      -1400.9172     -1901.7867      7681.1529      13.9517        24.165054      22.783031    
      5500   384.01126     -1424.8063      21.393698     -1403.4126     -1418.5566      7624.7983      13.917497      24.105811      22.727177    
      6000   403.64396     -1424.632       22.487458     -1402.1445      507.6562       7624.2025      13.917134      24.105183      22.726585    
      6500   370.39267     -1427.6598      20.634991     -1407.0248      694.76726      7538.3408      13.864693      24.014353      22.640949    
      7000   410.36684     -1429.9978      22.861997     -1407.1358      963.84219      7544.5361      13.86849       24.02093       22.64715     
      7500   383.50073     -1431.1685      21.365256     -1409.8033      993.67976      7507.7986      13.845943      23.981877      22.61033     
      8000   395.09822     -1434.0638      22.011365     -1412.0524      587.35588      7519.7524      13.853288      23.994598      22.622324    
      8500   418.53984     -1434.1447      23.317324     -1410.8274      206.4103       7507.1877      13.845567      23.981226      22.609717    
      9000   398.98723     -1433.1729      22.228026     -1410.9449      2319.8132      7456.1524      13.814121      23.92676       22.558365    
      9500   401.78729     -1434.0336      22.384021     -1411.6496     -1681.8415      7551.8949      13.872998      24.028737      22.65451     
     10000   399.20902     -1435.9166      22.240383     -1413.6763      469.22806      7467.8241      13.821326      23.939238      22.57013     
     10500   393.55815     -1436.7631      21.925566     -1414.8376     -932.72456      7518.5159      13.852528      23.993283      22.621084    
     11000   395.10697     -1436.5365      22.011853     -1414.5246     -583.52796      7421.8874      13.792928      23.890051      22.523756    
     11500   414.60238     -1437.8721      23.097964     -1414.7742     -2341.6516      7443.3706      13.806223      23.91308       22.545468    
     12000   389.80348     -1438.4545      21.716389     -1416.7381      3512.4066      7407.7169      13.784144      23.874837      22.509413    
     12500   387.54016     -1439.6233      21.590297     -1418.033      -2132.9375      7435.896       13.8016        23.905072      22.537918    
     13000   426.84398     -1439.7958      23.779957     -1416.0158     -251.07002      7406.1843      13.783193      23.873191      22.50786     
     13500   426.52032     -1439.1668      23.761926     -1415.4049     -937.48892      7440.2055      13.804266      23.90969       22.542272    
     14000   403.69775     -1438.0031      22.490455     -1415.5127      1063.7393      7437.52        13.802605      23.906813      22.539559    
     14500   395.61802     -1440.5418      22.040324     -1418.5015      2110.0612      7394.8163      13.776137      23.86097       22.496338    
     15000   424.13615     -1441.2992      23.629101     -1417.6701     -1736.2455      7413.1468      13.787511      23.880669      22.514911    
     15500   368.66766     -1441.2416      20.538889     -1420.7027     -913.85647      7397.0984      13.777554      23.863424      22.498652    
     16000   424.7647      -1439.9305      23.664118     -1416.2664     -2412.1143      7414.9782      13.788646      23.882636      22.516765    
     16500   381.91461     -1440.0305      21.276892     -1418.7536     -780.41065      7445.2249      13.807369      23.915065      22.54734     
     17000   386.64521     -1440.8713      21.540438     -1419.3309     -1934.1814      7413.5427      13.787756      23.881094      22.515312    
     17500   387.91583     -1442.5252      21.611227     -1420.914      -793.22462      7449.1778      13.809812      23.919297      22.551329    
     18000   402.48053     -1442.9434      22.422642     -1420.5207     -727.03964      7384.0141      13.769426      23.849346      22.485379    
     18500   404.31253     -1442.6507      22.524705     -1420.126      -2609.4575      7452.1848      13.81167       23.922515      22.554363    
     19000   386.29957     -1444.0589      21.521183     -1422.5377      860.49011      7381.1128      13.767623      23.846222      22.482433    
     19500   402.959       -1445.4082      22.449298     -1422.9589      3745.1464      7332.2767      13.737191      23.793514      22.43274     
     20000   413.8872      -1444.8174      23.05812      -1421.7593     -1212.8355      7442.9142      13.805941      23.912591      22.545007    
Loop time of 126.738 on 8 procs for 20000 steps with 432 atoms

Performance: 27.269 ns/day, 0.880 hours/ns, 157.806 timesteps/s, 68.172 katom-step/s
89.4% CPU use with 1 MPI tasks x 8 OpenMP threads

MPI task timing breakdown:
Section |  min time  |  avg time  |  max time  |%varavg| %total
---------------------------------------------------------------
Pair    | 108.62     | 108.62     | 108.62     |   0.0 | 85.71
Neigh   | 0.080077   | 0.080077   | 0.080077   |   0.0 |  0.06
Comm    | 0.14517    | 0.14517    | 0.14517    |   0.0 |  0.11
Output  | 0.003146   | 0.003146   | 0.003146   |   0.0 |  0.00
Modify  | 17.851     | 17.851     | 17.851     |   0.0 | 14.08
Other   |            | 0.03547    |            |       |  0.03

Nlocal:            432 ave         432 max         432 min
Histogram: 1 0 0 0 0 0 0 0 0 0
Nghost:           2216 ave        2216 max        2216 min
Histogram: 1 0 0 0 0 0 0 0 0 0
Neighs:          26705 ave       26705 max       26705 min
Histogram: 1 0 0 0 0 0 0 0 0 0
FullNghs:        53410 ave       53410 max       53410 min
Histogram: 1 0 0 0 0 0 0 0 0 0

Total # of neighbors = 53410
Ave neighs/atom = 123.63426
Neighbor list builds = 101
Dangerous builds = 0
=== STAGE 3: NPT Production at 400 K ===
No /omp style for force computation currently active
Setting up Verlet run ...
  Unit style    : metal
  Current step  : 0
  Time step     : 0.001
Per MPI rank memory allocation (min/avg/max) = 18.41 | 18.41 | 18.41 Mbytes
   Step          Temp          PotEng         KinEng         TotEng         Press          Volume           Lx             Ly             Lz      
         0   413.8872      -1444.8174      23.05812      -1421.7593     -1212.8355      7442.9142      13.805941      23.912591      22.545007    
       500   400.28376     -1444.9096      22.300257     -1422.6093     -1309.0839      7427.8461      13.796618      23.896443      22.529783    
      1000   358.77564     -1446.5754      19.987794     -1426.5876      1136.9785      7324.8821      13.732572      23.785512      22.425196    
      1500   387.69095     -1444.6107      21.598698     -1423.012      -2112.3059      7386.3589      13.770884      23.85187       22.487759    
      2000   418.50333     -1445.2798      23.31529      -1421.9645      211.90383      7378.5009      13.765998      23.843409      22.479781    
      2500   387.16234     -1446.1354      21.569248     -1424.5661     -355.08007      7392.3475      13.774604      23.858314      22.493834    
      3000   395.22428     -1444.8352      22.018388     -1422.8169     -1775.3624      7411.7589      13.78665       23.879179      22.513506    
      3500   414.37546     -1445.4974      23.085322     -1422.4121     -1035.6659      7402.1498      13.78069       23.868855      22.503772    
      4000   412.24585     -1447.1679      22.966679     -1424.2012      1368.0851      7358.2377      13.753385      23.821562      22.459184    
      4500   402.32925     -1446.5107      22.414214     -1424.0964      289.53573      7353.4114      13.750378      23.816353      22.454273    
      5000   400.00373     -1445.1924      22.284657     -1422.9077     -1070.4171      7382.7155      13.768619      23.847947      22.48406     
      5500   422.19256     -1445.4783      23.520821     -1421.9575     -1011.048       7374.0211      13.763212      23.838582      22.475231    
      6000   410.51218     -1446.5951      22.870095     -1423.725       495.15915      7323.2599      13.731558      23.783756      22.42354     
      6500   398.73711     -1447.4686      22.214092     -1425.2545     -3540.7448      7417.92        13.790469      23.885794      22.519742    
      7000   376.86886     -1448.8532      20.995787     -1427.8575      215.21048      7322.1868      13.730887      23.782594      22.422445    
      7500   406.77152     -1446.9803      22.661698     -1424.3186      822.18934      7309.5337      13.722974      23.768887      22.409522    
      8000   408.49384     -1446.288       22.757651     -1423.5304      2044.4578      7319.0373      13.728918      23.779184      22.41923     
      8500   380.90506     -1447.0728      21.220648     -1425.8522     -3728.3195      7379.0447      13.766337      23.843994      22.480333    
      9000   373.84992     -1446.161       20.827599     -1425.3334      746.89843      7329.6172      13.73553       23.790636      22.430027    
      9500   395.36465     -1448.9792      22.026208     -1426.953       1346.56        7328.3797      13.734757      23.789298      22.428765    
     10000   407.31715     -1449.0997      22.692095     -1426.4076      967.11797      7285.6322      13.708         23.742952      22.38507     
     10500   417.85921     -1448.8233      23.279406     -1425.5439      1413.0955      7292.7509      13.712463      23.750682      22.392358    
     11000   415.2538      -1448.123       23.134255     -1424.9888     -673.68145      7317.5832      13.728009      23.777609      22.417745    
     11500   391.65853     -1449.1502      21.819737     -1427.3305      609.97712      7229.3484      13.672609      23.681653      22.327277    
     12000   361.03228     -1447.5867      20.113514     -1427.4732     -656.5488       7309.5143      13.722961      23.768866      22.409502    
     12500   427.35416     -1447.7435      23.80838      -1423.9351     -1334.7852      7316.3655      13.727248      23.77629       22.416501    
     13000   419.21323     -1450.4405      23.35484      -1427.0856     -1441.278       7319.818       13.729406      23.78003       22.420027    
     13500   404.51116     -1450.6843      22.535771     -1428.1485      810.01691      7321.1373      13.730231      23.781458      22.421374    
     14000   416.47857     -1449.5442      23.202489     -1426.3417      24.901387      7279.6777      13.704264      23.736482      22.37897     
     14500   415.14251     -1448.6902      23.128055     -1425.5622     -3323.6206      7323.1292      13.731476      23.783615      22.423407    
     15000   393.92066     -1446.6181      21.945762     -1424.6723      2893.5685      7353.3998      13.75037       23.81634       22.454261    
     15500   387.07041     -1448.5508      21.564127     -1426.9867     -10.845376      7333.2177      13.737779      23.794531      22.433699    
     16000   406.01086     -1450.733       22.619321     -1428.1137      2252.2985      7248.7951      13.684857      23.702868      22.347279    
     16500   415.35111     -1448.4454      23.139676     -1425.3057      1008.6831      7276.8295      13.702477      23.733386      22.376051    
     17000   439.0893      -1450.5222      24.462158     -1426.06       -1350.5002      7345.5126      13.745452      23.807822      22.44623     
     17500   404.0106      -1449.461       22.507884     -1426.9531      2435.2254      7282.5349      13.706057      23.739587      22.381897    
     18000   371.6485      -1449.3377      20.704955     -1428.6328      402.74343      7256.4653      13.689682      23.711226      22.355158    
     18500   389.78578     -1451.6368      21.715404     -1429.9214      1043.4378      7273.2226      13.700212      23.729464      22.372353    
     19000   395.20827     -1448.1511      22.017496     -1426.1336     -2782.2593      7337.9237      13.740717      23.79962       22.438497    
     19500   392.85187     -1449.6662      21.886219     -1427.7799     -2375.4086      7297.6745      13.715548      23.756026      22.397396    
     20000   415.148       -1448.2552      23.128361     -1425.1268      301.83241      7335.0336      13.738913      23.796495      22.435551    
     20500   397.84665     -1450.2059      22.164483     -1428.0414     -756.35454      7287.2423      13.709009      23.744701      22.386718    
     21000   429.09169     -1449.4769      23.90518      -1425.5717      3073.179       7242.4126      13.68084       23.69591       22.340718    
     21500   412.45762     -1449.2616      22.978477     -1426.2831      1773.3218      7248.8882      13.684916      23.70297       22.347374    
     22000   419.47413     -1450.9204      23.369374     -1427.5511     -171.8754       7262.8571      13.693701      23.718186      22.36172     
     22500   390.79177     -1449.8834      21.771448     -1428.112      -12.871453      7233.0814      13.674962      23.685728      22.331119    
     23000   414.67638     -1448.7211      23.102086     -1425.619       1599.6559      7281.384       13.705335      23.738336      22.380718    
     23500   391.59448     -1450.4409      21.816168     -1428.6247      2312.969       7254.0983      13.688194      23.708647      22.352727    
     24000   399.30753     -1450.0585      22.245871     -1427.8127     -877.16613      7264.9436      13.695012      23.720457      22.363861    
     24500   419.24127     -1451.4499      23.356402     -1428.0935     -2198.5244      7294.8591      13.713784      23.752971      22.394515    
     25000   396.09686     -1451.6604      22.067        -1429.5934      1237.8224      7209.8386      13.660298      23.660331      22.307174    
     25500   395.3951      -1451.4965      22.027905     -1429.4686     -4897.9615      7329.2859      13.735323      23.790278      22.429689    
     26000   401.18424     -1450.559       22.350424     -1428.2086      2927.9098      7222.982       13.668594      23.674699      22.320721    
     26500   400.96779     -1449.0921      22.338366     -1426.7537     -714.64004      7237.7416      13.677898      23.690814      22.335914    
     27000   388.01781     -1451.6801      21.616908     -1430.0631     -2771.6105      7273.4592      13.700361      23.729721      22.372596    
     27500   414.76545     -1449.024       23.107049     -1425.9169      1868.9297      7223.2838      13.668784      23.675029      22.321032    
     28000   394.45692     -1448.3489      21.975638     -1426.3733     -2165.2571      7274.2358      13.700848      23.730566      22.373392    
     28500   393.81085     -1450.0435      21.939644     -1428.1038      2199.0364      7230.4444      13.6733        23.68285       22.328405    
     29000   427.53183     -1453.2659      23.818278     -1429.4476     -1624.0789      7208.2055      13.659267      23.658544      22.305489    
     29500   413.70915     -1451.0105      23.048201     -1427.9623      3709.5129      7183.5014      13.643645      23.631486      22.279978    
     30000   447.42984     -1451.9761      24.926819     -1427.0493     -1758.0511      7263.9859      13.69441       23.719414      22.362878    
     30500   418.63692     -1451.9025      23.322733     -1428.5797      2943.8049      7219.8682      13.66663       23.671297      22.317513    
     31000   406.16627     -1452.1762      22.627979     -1429.5483      257.31754      7172.898       13.636928      23.619852      22.26901     
     31500   377.25833     -1452.0005      21.017485     -1430.9831     -3639.6668      7276.0224      13.70197       23.732508      22.375223    
     32000   391.64298     -1454.1201      21.81887      -1432.3012     -2846.245       7248.4302      13.684628      23.702471      22.346904    
     32500   392.76196     -1453.2528      21.88121      -1431.3716     -1436.7078      7168.9298      13.634413      23.615496      22.264903    
     33000   451.32606     -1455.4349      25.143881     -1430.291      -788.0762       7183.2743      13.643501      23.631236      22.279743    
     33500   412.87645     -1452.5876      23.001811     -1429.5858      1044.3243      7182.2775      13.64287       23.630143      22.278713    
     34000   396.38812     -1452.9158      22.083227     -1430.8326      2182.8231      7136.885       13.614068      23.580257      22.231679    
     34500   388.65277     -1453.6257      21.652282     -1431.9734      2177.8345      7168.8828      13.634383      23.615444      22.264854    
     35000   375.26086     -1454.4992      20.906204     -1433.593      -2384.6532      7175.9838      13.638883      23.623239      22.272203    
     35500   400.23631     -1453.0293      22.297614     -1430.7317      287.26825      7198.2818      13.652996      23.647682      22.295248    
     36000   413.73        -1454.7712      23.049363     -1431.7218     -996.80481      7241.2763      13.680124      23.69467       22.339549    
     36500   381.37939     -1454.3407      21.247074     -1433.0936     -2659.4375      7238.466       13.678354      23.691605      22.336659    
     37000   394.36253     -1455.1479      21.970379     -1433.1775     -986.00368      7233.7681      13.675395      23.686478      22.331826    
     37500   414.58853     -1454.1511      23.097192     -1431.0539      2727.9316      7158.0745      13.627528      23.60357       22.25366     
     38000   414.53553     -1452.854       23.09424      -1429.7598      527.62862      7195.1108      13.65099       23.644209      22.291974    
     38500   425.57499     -1455.836       23.70926      -1432.1267     -2104.5946      7166.8948      13.633123      23.613261      22.262796    
     39000   415.78512     -1455.2444      23.163856     -1432.0806      1460.4277      7199.5128      13.653774      23.64903       22.296519    
     39500   391.17263     -1455.2471      21.792666     -1433.4544      514.97438      7205.0168      13.657252      23.655055      22.3022      
     40000   390.70174     -1453.4354      21.766433     -1431.669      -1133.7125      7260.3964      13.692154      23.715507      22.359194    
     40500   386.22496     -1454.7259      21.517026     -1433.2088      1561.4468      7179.012       13.640802      23.626562      22.275336    
     41000   405.94974     -1453.9907      22.615916     -1431.3748      375.41554      7200.827       13.654605      23.650469      22.297876    
     41500   408.10711     -1454.1049      22.736105     -1431.3688      3457.8533      7169.8923      13.635023      23.616553      22.2659      
     42000   406.07158     -1453.9614      22.622704     -1431.3387     -1485.5264      7205.0951      13.657302      23.655141      22.30228     
     42500   406.35673     -1454.4114      22.63859      -1431.7728      30.80347       7238.552       13.678408      23.691698      22.336748    
     43000   408.65335     -1453.8997      22.766537     -1431.1331      7333.1682      7134.962       13.612845      23.578139      22.229682    
     43500   416.56009     -1451.5798      23.20703      -1428.3728      802.80682      7185.8826      13.645152      23.634096      22.28244     
     44000   414.73424     -1454.6073      23.10531      -1431.5019     -994.52783      7177.835       13.640056      23.62527       22.274118    
     44500   383.89123     -1453.6578      21.387011     -1432.2708     -931.25699      7197.5689      13.652545      23.646901      22.294512    
     45000   387.18691     -1453.5145      21.570617     -1431.9439      2357.879       7163.5507      13.631002      23.609588      22.259333    
     45500   392.6979      -1454.8285      21.877641     -1432.9509      1355.7492      7147.9209      13.621081      23.592405      22.243132    
     46000   394.77142     -1454.5933      21.993159     -1432.6002     -802.7953       7188.3791      13.646732      23.636833      22.28502     
     46500   395.28187     -1451.2649      22.021597     -1429.2433     -1143.4493      7199.9373      13.654042      23.649495      22.296958    
     47000   397.03296     -1455.0481      22.119152     -1432.929      -7.3310248      7153.8141      13.624824      23.598887      22.249244    
     47500   385.51372     -1454.9599      21.477402     -1433.4825     -994.58624      7209.4955      13.660082      23.659955      22.30682     
     48000   397.62211     -1455.995       22.151974     -1433.8431      3958.3493      7127.736       13.608248      23.570176      22.222175    
     48500   393.04026     -1453.6539      21.896714     -1431.7572      2073.9115      7175.8959      13.638828      23.623143      22.272113    
     49000   404.81081     -1454.1102      22.552464     -1431.5577     -1541.3216      7157.3269      13.627053      23.602749      22.252885    
     49500   392.18619     -1455.7115      21.849133     -1433.8624     -681.83824      7204.3231      13.656814      23.654296      22.301484    
     50000   421.00496     -1458.3168      23.454659     -1434.8622      4403.8934      7098.2296      13.589444      23.537607      22.191469    
Loop time of 321.158 on 8 procs for 50000 steps with 432 atoms

Performance: 13.451 ns/day, 1.784 hours/ns, 155.687 timesteps/s, 67.257 katom-step/s
88.9% CPU use with 1 MPI tasks x 8 OpenMP threads

MPI task timing breakdown:
Section |  min time  |  avg time  |  max time  |%varavg| %total
---------------------------------------------------------------
Pair    | 277.12     | 277.12     | 277.12     |   0.0 | 86.29
Neigh   | 0.070212   | 0.070212   | 0.070212   |   0.0 |  0.02
Comm    | 0.36513    | 0.36513    | 0.36513    |   0.0 |  0.11
Output  | 0.006801   | 0.006801   | 0.006801   |   0.0 |  0.00
Modify  | 43.524     | 43.524     | 43.524     |   0.0 | 13.55
Other   |            | 0.06981    |            |       |  0.02

Nlocal:            432 ave         432 max         432 min
Histogram: 1 0 0 0 0 0 0 0 0 0
Nghost:           2277 ave        2277 max        2277 min
Histogram: 1 0 0 0 0 0 0 0 0 0
Neighs:          27767 ave       27767 max       27767 min
Histogram: 1 0 0 0 0 0 0 0 0 0
FullNghs:        55534 ave       55534 max       55534 min
Histogram: 1 0 0 0 0 0 0 0 0 0

Total # of neighbors = 55534
Ave neighs/atom = 128.55093
Neighbor list builds = 85
Dangerous builds = 0

=== FINAL RESULTS: DHCP at 400 K ===
Atoms: 432 | PE/atom: -3.36722968843728 eV/atom
WARNING: Detected non-ASCII characters in input. Will try to continue by replacing with ASCII equivalents where known. (src/input.cpp:479)
Volume: 7098.22961397241 …³ | Area: 319.862991225054 ²
==========================================
DHCP 400 432 -3.36722968843728 7098.22961397241 13.5894438473733 23.5376071911052 22.1914688748039 319.862991225054
Simulation complete!
Total wall time: 0:07:29
