LAMMPS (10 Sep 2025)
  using 8 OpenMP thread(s) per MPI task
Loaded 1 plugins from C:\Users\J.Shiva\AppData\Local\LAMMPS 64-bit 10Sep2025\plugins
using multi-threaded neighbor list subroutines
Reading data file ...
  orthogonal box = (0 0 0) to (23.505 23.505 23.505)
  1 by 1 by 1 MPI processor grid
  reading atoms ...
  864 atoms
  read_data CPU = 0.026 seconds
=== STAGE 1: Energy Minimization ===
Switching to 'neigh_modify every 1 delay 0 check yes' setting during minimization
No /omp style for force computation currently active
Neighbor list info ...
  update: every = 1 steps, delay = 0 steps, check = yes
  max neighbors/atom: 4000, page size: 100000
  master list distance cutoff = 8
  ghost atom cutoff = 8
  binsize = 4, bins = 6 6 6
  2 neighbor lists, perpetual/occasional/extra = 2 0 0
  (1) pair meam, perpetual
      attributes: full, newton on, omp
      pair build: full/bin/atomonly/omp
      stencil: full/bin/3d
      bin: standard
  (2) pair meam, perpetual, half/full from (1)
      attributes: half, newton on, omp
      pair build: halffull/newton/omp
      stencil: none
      bin: none
Setting up cg style minimization ...
  Unit style    : metal
  Current step  : 0
Per MPI rank memory allocation (min/avg/max) = 20.91 | 20.91 | 20.91 Mbytes
   Step          Temp          PotEng         KinEng         TotEng         Press          Volume           Lx             Ly             Lz      
         0   0             -2810.0025      0             -2810.0025      50121.131      12986.161      23.505         23.505         23.505       
        44   0             -2826.5515      0             -2826.5515      55434.12       12986.161      23.505         23.505         23.505       
Loop time of 1.4637 on 8 procs for 44 steps with 864 atoms

96.1% CPU use with 1 MPI tasks x 8 OpenMP threads

Minimization stats:
  Stopping criterion = energy tolerance
  Energy initial, next-to-last, final = 
     -2810.00249700779  -2826.54892738799  -2826.55149193798
  Force two-norm initial, final = 6.3634789 0.1112569
  Force max component initial, final = 0.47786057 0.026259256
  Final line search alpha, max atom move = 1 0.026259256
  Iterations, force evaluations = 44 88

MPI task timing breakdown:
Section |  min time  |  avg time  |  max time  |%varavg| %total
---------------------------------------------------------------
Pair    | 1.4393     | 1.4393     | 1.4393     |   0.0 | 98.33
Neigh   | 0          | 0          | 0          |   0.0 |  0.00
Comm    | 0.00096    | 0.00096    | 0.00096    |   0.0 |  0.07
Output  | 0          | 0          | 0          |   0.0 |  0.00
Modify  | 0.022263   | 0.022263   | 0.022263   |   0.0 |  1.52
Other   |            | 0.001153   |            |       |  0.08

Nlocal:            864 ave         864 max         864 min
Histogram: 1 0 0 0 0 0 0 0 0 0
Nghost:           3767 ave        3767 max        3767 min
Histogram: 1 0 0 0 0 0 0 0 0 0
Neighs:          60480 ave       60480 max       60480 min
Histogram: 1 0 0 0 0 0 0 0 0 0
FullNghs:       120960 ave      120960 max      120960 min
Histogram: 1 0 0 0 0 0 0 0 0 0

Total # of neighbors = 120960
Ave neighs/atom = 140
Neighbor list builds = 0
Dangerous builds = 0
Minimized PE/atom: -3.27147163418748 eV/atom
=== STAGE 2: NPT Equilibration at 200 K ===
No /omp style for force computation currently active
Setting up Verlet run ...
  Unit style    : metal
  Current step  : 0
  Time step     : 0.002
Per MPI rank memory allocation (min/avg/max) = 19.78 | 19.78 | 19.78 Mbytes
   Step          Temp          PotEng         KinEng         TotEng         Press          Volume           Lx             Ly             Lz      
         0   200           -2826.5515      22.310301     -2804.2412      57269.153      12986.161      23.505         23.505         23.505       
       500   183.25116     -2824.4193      20.441943     -2803.9774     -708.4566       14353.232      24.302441      24.302441      24.302441    
      1000   194.22712     -2823.5765      21.666328     -2801.9102      1132.2894      14311.834      24.279054      24.279054      24.279054    
      1500   203.68574     -2822.2994      22.721451     -2799.5779      1499.6845      14345.304      24.297966      24.297966      24.297966    
      2000   202.13496     -2821.9203      22.548459     -2799.3718     -8.5366509      14376.659      24.315656      24.315656      24.315656    
      2500   200.55723     -2823.0627      22.372461     -2800.6902     -329.74419      14367.199      24.310321      24.310321      24.310321    
      3000   196.10317     -2823.4751      21.875604     -2801.5995     -924.79307      14367.673      24.310589      24.310589      24.310589    
      3500   198.39308     -2823.0952      22.131046     -2800.9642      969.37485      14345.573      24.298118      24.298118      24.298118    
      4000   206.10427     -2822.727       22.991241     -2799.7358      649.37494      14360.6        24.306599      24.306599      24.306599    
      4500   206.45331     -2822.6036      23.030177     -2799.5734      18.207615      14363.889      24.308455      24.308455      24.308455    
      5000   196.40024     -2822.3955      21.908742     -2800.4867      882.17324      14355.229      24.303568      24.303568      24.303568    
      5500   196.2314      -2823.6451      21.889908     -2801.7552      156.46073      14357.449      24.304821      24.304821      24.304821    
      6000   197.94758     -2823.1233      22.08135      -2801.0419     -48.144823      14366.471      24.309911      24.309911      24.309911    
      6500   211.72238     -2823.3369      23.617951     -2799.7189      1804.518       14340.775      24.295408      24.295408      24.295408    
      7000   210.65765     -2822.6322      23.499178     -2799.1331     -1154.3553      14376.705      24.315682      24.315682      24.315682    
      7500   190.47653     -2822.8603      21.247944     -2801.6124      12.148187      14367.974      24.310759      24.310759      24.310759    
      8000   194.11641     -2823.3542      21.653977     -2801.7002      156.75853      14374.766      24.314589      24.314589      24.314589    
      8500   204.66763     -2822.3616      22.830982     -2799.5307     -2025.5226      14432.954      24.347352      24.347352      24.347352    
      9000   198.17658     -2823.2087      22.106895     -2801.1018      1734.3886      14324.802      24.286385      24.286385      24.286385    
      9500   202.95167     -2823.913       22.639564     -2801.2734     -1019.7066      14373.863      24.314079      24.314079      24.314079    
     10000   204.82115     -2823.4287      22.848108     -2800.5806     -1811.2596      14417.298      24.338545      24.338545      24.338545    
     10500   205.63499     -2822.523       22.938892     -2799.5841      1529.9706      14344.014      24.297238      24.297238      24.297238    
     11000   202.06575     -2823.8148      22.540738     -2801.274      -1122.117       14382.218      24.31879       24.31879       24.31879     
     11500   206.8366      -2824.3004      23.072934     -2801.2275      1226.9219      14344.823      24.297694      24.297694      24.297694    
     12000   198.03051     -2823.1797      22.090602     -2801.0891     -1246.0869      14397.78       24.327558      24.327558      24.327558    
     12500   215.11419     -2823.7128      23.996311     -2799.7165     -878.45007      14375.486      24.314995      24.314995      24.314995    
     13000   204.86566     -2823.1364      22.853072     -2800.2833      230.20339      14365.441      24.30933       24.30933       24.30933     
     13500   203.20541     -2823.4974      22.667869     -2800.8295      1433.3003      14331.54       24.290192      24.290192      24.290192    
     14000   198.71792     -2824.2787      22.167283     -2802.1114     -227.0143       14368.535      24.311075      24.311075      24.311075    
     14500   184.27934     -2823.3163      20.556638     -2802.7597      1582.0802      14316.681      24.281794      24.281794      24.281794    
     15000   204.46917     -2823.9565      22.808844     -2801.1476     -178.21943      14361.422      24.307063      24.307063      24.307063    
     15500   195.54475     -2823.0239      21.813312     -2801.2106      1461.0015      14337.691      24.293667      24.293667      24.293667    
     16000   200.27894     -2822.9701      22.341417     -2800.6287     -356.81206      14371.818      24.312926      24.312926      24.312926    
     16500   200.83765     -2822.9779      22.403742     -2800.5742     -1159.503       14418.427      24.339181      24.339181      24.339181    
     17000   201.61432     -2822.1599      22.490381     -2799.6695      2071.1344      14332.446      24.290704      24.290704      24.290704    
     17500   200.99033     -2823.4523      22.420774     -2801.0315     -309.23086      14393.611      24.325209      24.325209      24.325209    
     18000   199.99564     -2823.6301      22.309815     -2801.3203      734.90763      14353.169      24.302406      24.302406      24.302406    
     18500   206.20789     -2823.0268      23.002801     -2800.024      -610.70153      14385.898      24.320863      24.320863      24.320863    
     19000   200.13416     -2822.5467      22.325267     -2800.2214     -705.29308      14391.146      24.323821      24.323821      24.323821    
     19500   193.12941     -2822.0953      21.543876     -2800.5514     -115.96364      14397.007      24.327122      24.327122      24.327122    
     20000   198.50812     -2823.4454      22.14388      -2801.3016      309.93459      14369.316      24.311515      24.311515      24.311515    
Loop time of 291.382 on 8 procs for 20000 steps with 864 atoms

Performance: 11.861 ns/day, 2.023 hours/ns, 68.638 timesteps/s, 59.304 katom-step/s
90.5% CPU use with 1 MPI tasks x 8 OpenMP threads

MPI task timing breakdown:
Section |  min time  |  avg time  |  max time  |%varavg| %total
---------------------------------------------------------------
Pair    | 266.46     | 266.46     | 266.46     |   0.0 | 91.45
Neigh   | 0.004729   | 0.004729   | 0.004729   |   0.0 |  0.00
Comm    | 0.18134    | 0.18134    | 0.18134    |   0.0 |  0.06
Output  | 0.002924   | 0.002924   | 0.002924   |   0.0 |  0.00
Modify  | 24.689     | 24.689     | 24.689     |   0.0 |  8.47
Other   |            | 0.0399     |            |       |  0.01

Nlocal:            864 ave         864 max         864 min
Histogram: 1 0 0 0 0 0 0 0 0 0
Nghost:           2813 ave        2813 max        2813 min
Histogram: 1 0 0 0 0 0 0 0 0 0
Neighs:          58058 ave       58058 max       58058 min
Histogram: 1 0 0 0 0 0 0 0 0 0
FullNghs:       116116 ave      116116 max      116116 min
Histogram: 1 0 0 0 0 0 0 0 0 0

Total # of neighbors = 116116
Ave neighs/atom = 134.39352
Neighbor list builds = 4
Dangerous builds = 0
=== STAGE 3: NPT Production at 200 K ===
No /omp style for force computation currently active
Setting up Verlet run ...
  Unit style    : metal
  Current step  : 0
  Time step     : 0.001
Per MPI rank memory allocation (min/avg/max) = 19.78 | 19.78 | 19.78 Mbytes
   Step          Temp          PotEng         KinEng         TotEng         Press          Volume           Lx             Ly             Lz      
         0   198.50812     -2823.4454      22.14388      -2801.3016      309.93459      14369.316      24.311515      24.311515      24.311515    
       500   198.81047     -2823.1104      22.177607     -2800.9327      1379.7539      14344.791      24.297676      24.297676      24.297676    
      1000   204.97791     -2823.9099      22.865594     -2801.0443      220.93244      14363.643      24.308316      24.308316      24.308316    
      1500   194.97365     -2823.3265      21.749604     -2801.5769      783.73312      14368.634      24.311131      24.311131      24.311131    
      2000   197.87663     -2824.2396      22.073436     -2802.1662      129.69143      14344.672      24.297609      24.297609      24.297609    
      2500   195.55314     -2823.9111      21.814247     -2802.0969      1505.5773      14340.278      24.295128      24.295128      24.295128    
      3000   206.24254     -2822.5154      23.006666     -2799.5087      1947.8949      14323.659      24.285739      24.285739      24.285739    
      3500   202.21813     -2822.7889      22.557737     -2800.2311      552.40668      14372.376      24.313241      24.313241      24.313241    
      4000   185.19449     -2822.5197      20.658724     -2801.861       2179.1132      14335.601      24.292486      24.292486      24.292486    
      4500   194.81111     -2822.6665      21.731472     -2800.935      -499.02025      14380.901      24.318048      24.318048      24.318048    
      5000   199.07266     -2823.0639      22.206855     -2800.857      -722.4759       14380.656      24.317909      24.317909      24.317909    
      5500   207.59862     -2822.657       23.157938     -2799.499      -465.48849      14370.042      24.311925      24.311925      24.311925    
      6000   205.96141     -2823.9861      22.975306     -2801.0107      1748.4634      14333.91       24.291531      24.291531      24.291531    
      6500   196.42246     -2822.9759      21.911221     -2801.0646      629.2898       14358.516      24.305423      24.305423      24.305423    
      7000   210.96799     -2823.726       23.533797     -2800.1922      470.05902      14365.543      24.309388      24.309388      24.309388    
      7500   194.90679     -2823.8349      21.742146     -2802.0928     -311.76735      14372.802      24.313481      24.313481      24.313481    
      8000   191.56985     -2824.0623      21.369906     -2802.6924     -1555.3519      14411.888      24.335501      24.335501      24.335501    
      8500   200.34117     -2823.5584      22.348359     -2801.2101      2148.807       14318.797      24.282991      24.282991      24.282991    
      9000   202.25249     -2823.6341      22.56157      -2801.0726     -314.20798      14380.461      24.317799      24.317799      24.317799    
      9500   196.31906     -2823.9518      21.899687     -2802.0521      1773.7721      14340.662      24.295345      24.295345      24.295345    
     10000   202.0036      -2823.7395      22.533805     -2801.2057      516.70953      14347.256      24.299068      24.299068      24.299068    
     10500   197.54319     -2822.2643      22.03624      -2800.228      -715.32327      14401.16       24.329462      24.329462      24.329462    
     11000   207.01048     -2822.9727      23.092331     -2799.8804     -1465.0716      14398.266      24.327832      24.327832      24.327832    
     11500   198.68636     -2823.3753      22.163763     -2801.2116     -705.89835      14389.125      24.322682      24.322682      24.322682    
     12000   209.02469     -2824.8161      23.317018     -2801.4991      889.29277      14341.659      24.295908      24.295908      24.295908    
     12500   207.95976     -2821.9901      23.198225     -2798.7919      506.31495      14362.711      24.30779       24.30779       24.30779     
     13000   199.77798     -2824.3777      22.285534     -2802.0921      1251.1547      14338.913      24.294357      24.294357      24.294357    
     13500   208.37754     -2823.7468      23.244829     -2800.5019      1518.2102      14327.783      24.28807       24.28807       24.28807     
     14000   198.04805     -2823.4787      22.092558     -2801.3862     -1057.2682      14388.388      24.322267      24.322267      24.322267    
     14500   197.66242     -2824.0569      22.04954      -2802.0073      1002.3839      14327.602      24.287967      24.287967      24.287967    
     15000   194.68336     -2824.0962      21.717221     -2802.379       512.17198      14359.487      24.305971      24.305971      24.305971    
     15500   203.64822     -2823.7078      22.717266     -2800.9906     -808.383        14386.049      24.320949      24.320949      24.320949    
     16000   212.41366     -2824.1754      23.695063     -2800.4803      289.79044      14377.576      24.316173      24.316173      24.316173    
     16500   199.16289     -2823.5207      22.21692      -2801.3038     -2848.8028      14417.465      24.33864       24.33864       24.33864     
     17000   202.07453     -2824.5831      22.541718     -2802.0414      2485.3243      14316.535      24.281712      24.281712      24.281712    
     17500   203.06636     -2824.3198      22.652358     -2801.6674     -1370.6718      14402.6        24.330272      24.330272      24.330272    
     18000   200.83882     -2823.7686      22.403873     -2801.3648      1163.5885      14331.704      24.290285      24.290285      24.290285    
     18500   206.79009     -2824.128       23.067745     -2801.0603      1718.7953      14331.593      24.290222      24.290222      24.290222    
     19000   205.53317     -2822.5444      22.927535     -2799.6168     -6.2464441      14375.604      24.315061      24.315061      24.315061    
     19500   194.72438     -2823.3246      21.721798     -2801.6028      1359.9399      14334.822      24.292046      24.292046      24.292046    
     20000   200.07907     -2824.159       22.319121     -2801.8399      1540.032       14331.022      24.2899        24.2899        24.2899      
     20500   198.3443      -2822.6055      22.125606     -2800.4799     -264.64106      14403.242      24.330634      24.330634      24.330634    
     21000   209.58174     -2822.6777      23.379159     -2799.2985     -691.19657      14410.08       24.334484      24.334484      24.334484    
     21500   197.23366     -2822.9788      22.001711     -2800.9771      1932.0164      14312.814      24.279608      24.279608      24.279608    
     22000   198.02554     -2823.3708      22.090047     -2801.2807     -40.596258      14367.039      24.310231      24.310231      24.310231    
     22500   198.46157     -2823.6674      22.138686     -2801.5287      1405.0387      14329.012      24.288764      24.288764      24.288764    
     23000   203.78916     -2822.87        22.732988     -2800.137       336.33732      14374.544      24.314463      24.314463      24.314463    
     23500   200.16047     -2823.0952      22.328201     -2800.767      -490.53249      14411.797      24.33545       24.33545       24.33545     
     24000   191.66681     -2823.4842      21.380722     -2802.1035      625.56116      14382.45       24.318921      24.318921      24.318921    
     24500   203.83144     -2824.273       22.737704     -2801.5353      452.8569       14369.543      24.311643      24.311643      24.311643    
     25000   200.95246     -2823.8374      22.41655      -2801.4208      215.35437      14363.793      24.3084        24.3084        24.3084      
     25500   196.20355     -2825.1278      21.886801     -2803.241      -491.90884      14377.091      24.3159        24.3159        24.3159      
     26000   202.22901     -2824.6394      22.558951     -2802.0805     -1090.6613      14398.981      24.328234      24.328234      24.328234    
     26500   197.11585     -2823.2112      21.988569     -2801.2226      333.37067      14356.359      24.304206      24.304206      24.304206    
     27000   202.809       -2824.0496      22.623649     -2801.4259     -658.19015      14398.074      24.327723      24.327723      24.327723    
     27500   198.01168     -2822.7152      22.088501     -2800.6267     -455.04055      14414.52       24.336982      24.336982      24.336982    
     28000   198.57657     -2823.6046      22.151515     -2801.4531      222.58633      14380.462      24.3178        24.3178        24.3178      
     28500   193.07741     -2823.8449      21.538075     -2802.3068      160.32649      14366.816      24.310106      24.310106      24.310106    
     29000   201.17522     -2823.6769      22.441398     -2801.2355     -137.78937      14374.807      24.314612      24.314612      24.314612    
     29500   206.63568     -2823.6587      23.050521     -2800.6082     -942.49271      14389.631      24.322967      24.322967      24.322967    
     30000   194.11491     -2823.293       21.65381      -2801.6392      920.2592       14369.172      24.311434      24.311434      24.311434    
     30500   202.70008     -2823.3891      22.611499     -2800.7776      1762.0786      14341.648      24.295901      24.295901      24.295901    
     31000   208.40022     -2823.2145      23.247358     -2799.9672     -996.25333      14407.368      24.332957      24.332957      24.332957    
     31500   202.25275     -2823.5438      22.561599     -2800.9822     -24.168578      14358.053      24.305162      24.305162      24.305162    
     32000   199.51245     -2823.8335      22.255914     -2801.5776     -2156.0404      14422.037      24.341212      24.341212      24.341212    
     32500   199.54004     -2822.551       22.258991     -2800.292      -456.94382      14390.298      24.323343      24.323343      24.323343    
     33000   196.35029     -2822.3742      21.90317      -2800.471      -749.44181      14413.448      24.336379      24.336379      24.336379    
     33500   191.44006     -2822.8308      21.355426     -2801.4753      72.216203      14396.646      24.326919      24.326919      24.326919    
     34000   199.18862     -2823.2003      22.21979      -2800.9805     -375.51381      14423.932      24.342278      24.342278      24.342278    
     34500   211.26302     -2822.8972      23.566708     -2799.3305      820.55924      14374.966      24.314702      24.314702      24.314702    
     35000   194.96884     -2822.9084      21.749068     -2801.1593     -677.202        14393.172      24.324962      24.324962      24.324962    
     35500   199.36294     -2824.5067      22.239236     -2802.2674     -2324.045       14431.21       24.346372      24.346372      24.346372    
     36000   200.38618     -2823.3771      22.35338      -2801.0237     -1187.5019      14390.633      24.323531      24.323531      24.323531    
     36500   205.64343     -2822.9992      22.939834     -2800.0594     -1328.528       14396.785      24.326997      24.326997      24.326997    
     37000   201.24516     -2823.4743      22.4492       -2801.0251     -1896.833       14414.79       24.337134      24.337134      24.337134    
     37500   200.73955     -2823.9467      22.392799     -2801.5539     -123.4446       14369.274      24.311492      24.311492      24.311492    
     38000   195.70881     -2825.0842      21.831612     -2803.2525      684.29123      14348.95       24.300024      24.300024      24.300024    
     38500   210.15608     -2823.808       23.443227     -2800.3647     -1349.3376      14423.273      24.341908      24.341908      24.341908    
     39000   206.50306     -2823.9825      23.035727     -2800.9468      927.30143      14361.295      24.306991      24.306991      24.306991    
     39500   184.61305     -2823.9001      20.593864     -2803.3063     -267.25873      14403.411      24.330729      24.330729      24.330729    
     40000   193.81335     -2824.4067      21.620171     -2802.7865     -711.0859       14413.609      24.33647       24.33647       24.33647     
     40500   201.32301     -2823.226       22.457885     -2800.7681      1931.4303      14357.803      24.305021      24.305021      24.305021    
     41000   195.60894     -2823.2676      21.820472     -2801.4471     -755.23965      14425.931      24.343403      24.343403      24.343403    
     41500   198.59732     -2825.4794      22.15383      -2803.3256      2186.8037      14334.589      24.291915      24.291915      24.291915    
     42000   202.17197     -2823.9574      22.552587     -2801.4048      741.42191      14376.899      24.315791      24.315791      24.315791    
     42500   204.76961     -2823.744       22.842358     -2800.9016     -820.68715      14407.193      24.332858      24.332858      24.332858    
     43000   202.76342     -2823.5254      22.618565     -2800.9069     -556.73479      14417.106      24.338438      24.338438      24.338438    
     43500   198.73215     -2824.1376      22.168871     -2801.9688      926.22316      14358.246      24.305271      24.305271      24.305271    
     44000   197.41593     -2824.9097      22.022044     -2802.8877     -2401.8612      14459.295      24.362155      24.362155      24.362155    
     44500   189.808       -2823.8277      21.173369     -2802.6543      167.34127      14394.134      24.325504      24.325504      24.325504    
     45000   194.24145     -2823.034       21.667926     -2801.3661     -1143.1563      14432.582      24.347143      24.347143      24.347143    
     45500   194.60402     -2823.1635      21.708372     -2801.4551      465.50528      14391.843      24.324213      24.324213      24.324213    
     46000   203.75239     -2824.876       22.728886     -2802.1471      230.86006      14375.556      24.315034      24.315034      24.315034    
     46500   211.99554     -2825.0391      23.648422     -2801.3907     -775.55893      14385.691      24.320747      24.320747      24.320747    
     47000   193.3363      -2823.4597      21.566955     -2801.8928     -1241.1875      14412.501      24.335846      24.335846      24.335846    
     47500   205.88534     -2823.6435      22.96682      -2800.6767     -1970.7892      14433.716      24.347781      24.347781      24.347781    
     48000   207.77585     -2823.655       23.177709     -2800.4773      2296.3762      14346.684      24.298745      24.298745      24.298745    
     48500   189.59851     -2823.3662      21.149999     -2802.2162     -266.12007      14429.38       24.345342      24.345342      24.345342    
     49000   213.60233     -2823.591       23.827662     -2799.7633      218.91724      14373.54       24.313897      24.313897      24.313897    
     49500   210.36328     -2823.9494      23.466341     -2800.4831      462.42103      14368.913      24.311288      24.311288      24.311288    
     50000   204.42555     -2824.0466      22.803978     -2801.2426     -834.66269      14399.306      24.328417      24.328417      24.328417    
Loop time of 745.214 on 8 procs for 50000 steps with 864 atoms

Performance: 5.797 ns/day, 4.140 hours/ns, 67.095 timesteps/s, 57.970 katom-step/s
91.3% CPU use with 1 MPI tasks x 8 OpenMP threads

MPI task timing breakdown:
Section |  min time  |  avg time  |  max time  |%varavg| %total
---------------------------------------------------------------
Pair    | 683.72     | 683.72     | 683.72     |   0.0 | 91.75
Neigh   | 0.008687   | 0.008687   | 0.008687   |   0.0 |  0.00
Comm    | 0.45918    | 0.45918    | 0.45918    |   0.0 |  0.06
Output  | 0.006838   | 0.006838   | 0.006838   |   0.0 |  0.00
Modify  | 60.92      | 60.92      | 60.92      |   0.0 |  8.17
Other   |            | 0.1023     |            |       |  0.01

Nlocal:            864 ave         864 max         864 min
Histogram: 1 0 0 0 0 0 0 0 0 0
Nghost:           2844 ave        2844 max        2844 min
Histogram: 1 0 0 0 0 0 0 0 0 0
Neighs:          57950 ave       57950 max       57950 min
Histogram: 1 0 0 0 0 0 0 0 0 0
FullNghs:       115900 ave      115900 max      115900 min
Histogram: 1 0 0 0 0 0 0 0 0 0

Total # of neighbors = 115900
Ave neighs/atom = 134.14352
Neighbor list builds = 6
Dangerous builds = 0

=== FINAL RESULTS: FCC at 200 K ===
Atoms: 864 | PE/atom: -3.26840023345742 eV/atom
WARNING: Detected non-ASCII characters in input. Will try to continue by replacing with ASCII equivalents where known. (src/input.cpp:479)
Volume: 14399.306193159 …³ | Area: 591.871885744322 ²
==========================================
FCC 200 864 -3.26840023345742 14399.306193159 24.328417247004 24.328417247004 24.328417247004 591.871885744322
Simulation complete!
Total wall time: 0:17:18
