LAMMPS (10 Sep 2025)
  using 8 OpenMP thread(s) per MPI task
Loaded 1 plugins from C:\Users\J.Shiva\AppData\Local\LAMMPS 64-bit 10Sep2025\plugins
using multi-threaded neighbor list subroutines
Reading data file ...
  orthogonal box = (0 0 0) to (23.505 23.505 23.505)
  1 by 1 by 1 MPI processor grid
  reading atoms ...
  864 atoms
  read_data CPU = 0.004 seconds
=== STAGE 1: Energy Minimization ===
Switching to 'neigh_modify every 1 delay 0 check yes' setting during minimization
No /omp style for force computation currently active
Neighbor list info ...
  update: every = 1 steps, delay = 0 steps, check = yes
  max neighbors/atom: 4000, page size: 100000
  master list distance cutoff = 8
  ghost atom cutoff = 8
  binsize = 4, bins = 6 6 6
  2 neighbor lists, perpetual/occasional/extra = 2 0 0
  (1) pair meam, perpetual
      attributes: full, newton on, omp
      pair build: full/bin/atomonly/omp
      stencil: full/bin/3d
      bin: standard
  (2) pair meam, perpetual, half/full from (1)
      attributes: half, newton on, omp
      pair build: halffull/newton/omp
      stencil: none
      bin: none
Setting up cg style minimization ...
  Unit style    : metal
  Current step  : 0
Per MPI rank memory allocation (min/avg/max) = 20.91 | 20.91 | 20.91 Mbytes
   Step          Temp          PotEng         KinEng         TotEng         Press          Volume           Lx             Ly             Lz      
         0   0             -2810.0025      0             -2810.0025      50121.131      12986.161      23.505         23.505         23.505       
        44   0             -2826.5515      0             -2826.5515      55434.12       12986.161      23.505         23.505         23.505       
Loop time of 1.44247 on 8 procs for 44 steps with 864 atoms

93.2% CPU use with 1 MPI tasks x 8 OpenMP threads

Minimization stats:
  Stopping criterion = energy tolerance
  Energy initial, next-to-last, final = 
     -2810.00249700779  -2826.54892738799  -2826.55149193798
  Force two-norm initial, final = 6.3634789 0.1112569
  Force max component initial, final = 0.47786057 0.026259256
  Final line search alpha, max atom move = 1 0.026259256
  Iterations, force evaluations = 44 88

MPI task timing breakdown:
Section |  min time  |  avg time  |  max time  |%varavg| %total
---------------------------------------------------------------
Pair    | 1.4174     | 1.4174     | 1.4174     |   0.0 | 98.26
Neigh   | 0          | 0          | 0          |   0.0 |  0.00
Comm    | 0.001197   | 0.001197   | 0.001197   |   0.0 |  0.08
Output  | 0          | 0          | 0          |   0.0 |  0.00
Modify  | 0.022745   | 0.022745   | 0.022745   |   0.0 |  1.58
Other   |            | 0.001105   |            |       |  0.08

Nlocal:            864 ave         864 max         864 min
Histogram: 1 0 0 0 0 0 0 0 0 0
Nghost:           3767 ave        3767 max        3767 min
Histogram: 1 0 0 0 0 0 0 0 0 0
Neighs:          60480 ave       60480 max       60480 min
Histogram: 1 0 0 0 0 0 0 0 0 0
FullNghs:       120960 ave      120960 max      120960 min
Histogram: 1 0 0 0 0 0 0 0 0 0

Total # of neighbors = 120960
Ave neighs/atom = 140
Neighbor list builds = 0
Dangerous builds = 0
Minimized PE/atom: -3.27147163418748 eV/atom
=== STAGE 2: NPT Equilibration at 400 K ===
No /omp style for force computation currently active
Setting up Verlet run ...
  Unit style    : metal
  Current step  : 0
  Time step     : 0.002
Per MPI rank memory allocation (min/avg/max) = 19.78 | 19.78 | 19.78 Mbytes
   Step          Temp          PotEng         KinEng         TotEng         Press          Volume           Lx             Ly             Lz      
         0   400           -2826.5515      44.620602     -2781.9309      59104.185      12986.161      23.505         23.505         23.505       
       500   359.83626     -2806.1025      40.140277     -2765.9622     -2099.1274      14532.412      24.403151      24.403151      24.403151    
      1000   397.41442     -2799.0578      44.332177     -2754.7256     -741.0296       14571.66       24.425099      24.425099      24.425099    
      1500   414.74043     -2797.1832      46.264919     -2750.9182     -1847.6545      14575.433      24.427208      24.427208      24.427208    
      2000   403.41135     -2796.0279      45.001144     -2751.0268      437.38672      14550.864      24.413475      24.413475      24.413475    
      2500   377.81332     -2796.4833      42.145645     -2754.3376      1019.5362      14518.95       24.395613      24.395613      24.395613    
      3000   388.31664     -2799.5422      43.317306     -2756.2249     -765.19799      14553.091      24.41472       24.41472       24.41472     
      3500   419.22729     -2799.3301      46.765435     -2752.5647      1270.0346      14545.31       24.410368      24.410368      24.410368    
      4000   411.36589     -2797.9787      45.888484     -2752.0903     -1444.622       14623.635      24.454105      24.454105      24.454105    
      4500   356.72265     -2801.0939      39.792949     -2761.301       627.05068      14539.273      24.406991      24.406991      24.406991    
      5000   401.7279      -2796.7808      44.813352     -2751.9675      917.32486      14557.669      24.41728       24.41728       24.41728     
      5500   396.54209     -2797.9111      44.234867     -2753.6763     -475.8373       14579.814      24.429655      24.429655      24.429655    
      6000   384.51205     -2799.3006      42.892898     -2756.4077      333.46382      14573.378      24.426059      24.426059      24.426059    
      6500   379.45498     -2799.1494      42.328774     -2756.8207      1777.7303      14508.601      24.389815      24.389815      24.389815    
      7000   401.56529     -2799.0114      44.795213     -2754.2162      115.82025      14601.41       24.441711      24.441711      24.441711    
      7500   410.98444     -2798.9213      45.845933     -2753.0754     -1218.0669      14592.598      24.436793      24.436793      24.436793    
      8000   399.37338     -2797.8674      44.550701     -2753.3167     -699.72658      14567.671      24.42287       24.42287       24.42287     
      8500   396.2626      -2800.4488      44.203689     -2756.2451     -2616.1946      14637.231      24.461682      24.461682      24.461682    
      9000   391.64629     -2798.8207      43.688733     -2755.132      -364.89312      14549.257      24.412576      24.412576      24.412576    
      9500   401.87664     -2798.001       44.829944     -2753.1711     -208.34265      14609.09       24.445995      24.445995      24.445995    
     10000   399.27543     -2800.4836      44.539775     -2755.9438      302.58206      14581.526      24.430611      24.430611      24.430611    
     10500   388.32724     -2798.5456      43.318489     -2755.2271     -1438.2102      14592.827      24.43692       24.43692       24.43692     
     11000   401.49347     -2797.4927      44.787201     -2752.7055      109.24765      14601.586      24.441809      24.441809      24.441809    
     11500   416.77308     -2799.4119      46.491664     -2752.9202     -625.985        14592.334      24.436645      24.436645      24.436645    
     12000   410.64761     -2799.4218      45.808359     -2753.6135      3245.6655      14498.838      24.384343      24.384343      24.384343    
     12500   393.84351     -2799.094       43.933836     -2755.1602      4052.2934      14470.345      24.368359      24.368359      24.368359    
     13000   399.78256     -2800.4105      44.596346     -2755.8142     -1343.4709      14615.365      24.449495      24.449495      24.449495    
     13500   402.85084     -2798.5399      44.938618     -2753.6013     -991.93351      14589.263      24.434931      24.434931      24.434931    
     14000   403.6208      -2799.9386      45.024507     -2754.9141     -891.00479      14611.3        24.447228      24.447228      24.447228    
     14500   399.83316     -2797.9834      44.60199      -2753.3814     -724.24587      14623.483      24.454021      24.454021      24.454021    
     15000   398.3601      -2798.7149      44.437669     -2754.2772     -1807.2373      14612.137      24.447694      24.447694      24.447694    
     15500   393.11017     -2798.3255      43.852031     -2754.4735     -820.23151      14660.707      24.474752      24.474752      24.474752    
     16000   419.28564     -2799.8246      46.771944     -2753.0527      841.13616      14575.518      24.427255      24.427255      24.427255    
     16500   403.3514      -2800.5205      44.994455     -2755.5261     -188.12275      14622.127      24.453265      24.453265      24.453265    
     17000   406.48295     -2799.6993      45.343785     -2754.3555      1477.48        14562.22       24.419824      24.419824      24.419824    
     17500   393.47385     -2797.8894      43.892601     -2753.9968      453.98887      14651.818      24.469805      24.469805      24.469805    
     18000   379.01903     -2798.9817      42.280144     -2756.7016     -82.204494      14604.239      24.443289      24.443289      24.443289    
     18500   383.10416     -2801.2336      42.735846     -2758.4978     -40.871917      14585.167      24.432644      24.432644      24.432644    
     19000   402.62287     -2800.0013      44.913188     -2755.0881     -1589.949       14644.212      24.46557       24.46557       24.46557     
     19500   412.22242     -2801.0892      45.984032     -2755.1052     -1809.1875      14654.791      24.47146       24.47146       24.47146     
     20000   375.39198     -2801.4034      41.87554      -2759.5279     -3121.8349      14691.56       24.491909      24.491909      24.491909    
Loop time of 268.706 on 8 procs for 20000 steps with 864 atoms

Performance: 12.862 ns/day, 1.866 hours/ns, 74.431 timesteps/s, 64.308 katom-step/s
90.1% CPU use with 1 MPI tasks x 8 OpenMP threads

MPI task timing breakdown:
Section |  min time  |  avg time  |  max time  |%varavg| %total
---------------------------------------------------------------
Pair    | 245.03     | 245.03     | 245.03     |   0.0 | 91.19
Neigh   | 0.059756   | 0.059756   | 0.059756   |   0.0 |  0.02
Comm    | 0.17904    | 0.17904    | 0.17904    |   0.0 |  0.07
Output  | 0.003207   | 0.003207   | 0.003207   |   0.0 |  0.00
Modify  | 23.396     | 23.396     | 23.396     |   0.0 |  8.71
Other   |            | 0.04207    |            |       |  0.02

Nlocal:            864 ave         864 max         864 min
Histogram: 1 0 0 0 0 0 0 0 0 0
Nghost:           2801 ave        2801 max        2801 min
Histogram: 1 0 0 0 0 0 0 0 0 0
Neighs:          56638 ave       56638 max       56638 min
Histogram: 1 0 0 0 0 0 0 0 0 0
FullNghs:       113276 ave      113276 max      113276 min
Histogram: 1 0 0 0 0 0 0 0 0 0

Total # of neighbors = 113276
Ave neighs/atom = 131.10648
Neighbor list builds = 42
Dangerous builds = 0
=== STAGE 3: NPT Production at 400 K ===
No /omp style for force computation currently active
Setting up Verlet run ...
  Unit style    : metal
  Current step  : 0
  Time step     : 0.001
Per MPI rank memory allocation (min/avg/max) = 19.78 | 19.78 | 19.78 Mbytes
   Step          Temp          PotEng         KinEng         TotEng         Press          Volume           Lx             Ly             Lz      
         0   375.39198     -2801.4034      41.87554      -2759.5279     -3121.8349      14691.56       24.491909      24.491909      24.491909    
       500   394.83715     -2801.0171      44.044678     -2756.9724     -1156.2172      14667.458      24.478509      24.478509      24.478509    
      1000   398.60996     -2800.9596      44.465541     -2756.4941      1003.9464      14621.768      24.453065      24.453065      24.453065    
      1500   399.80785     -2801.8556      44.599167     -2757.2564      449.95448      14590.705      24.435736      24.435736      24.435736    
      2000   405.19602     -2800.6         45.200226     -2755.3997     -180.16875      14608.476      24.445653      24.445653      24.445653    
      2500   404.40593     -2800.3028      45.11209      -2755.1907     -1513.7694      14690.241      24.491176      24.491176      24.491176    
      3000   431.83972     -2799.4814      48.172371     -2751.309      -1390.4675      14648.712      24.468076      24.468076      24.468076    
      3500   396.68159     -2800.4         44.250428     -2756.1496      806.74459      14578.005      24.428644      24.428644      24.428644    
      4000   387.74748     -2800.4098      43.253815     -2757.156       1840.6754      14598.021      24.43982       24.43982       24.43982     
      4500   401.14916     -2799.6017      44.748793     -2754.8529      1149.3209      14612.523      24.44791       24.44791       24.44791     
      5000   415.69484     -2799.7452      46.371385     -2753.3739      1124.8506      14581.083      24.430363      24.430363      24.430363    
      5500   394.10862     -2800.7457      43.963409     -2756.7823     -771.84839      14638.957      24.462643      24.462643      24.462643    
      6000   394.71807     -2802.0879      44.031395     -2758.0565      875.56405      14574.455      24.426661      24.426661      24.426661    
      6500   390.71331     -2800.0851      43.584657     -2756.5004      766.57814      14554.164      24.41532       24.41532       24.41532     
      7000   400.61897     -2800.6623      44.689649     -2755.9726     -209.66337      14599.212      24.440484      24.440484      24.440484    
      7500   400.67906     -2798.6449      44.696352     -2753.9486      165.23735      14622.984      24.453742      24.453742      24.453742    
      8000   399.41186     -2799.7734      44.554994     -2755.2184     -320.67748      14606.568      24.444588      24.444588      24.444588    
      8500   409.82369     -2799.1717      45.716449     -2753.4553     -1759.4983      14679.529      24.485222      24.485222      24.485222    
      9000   400.0004      -2802.4308      44.620647     -2757.8102     -1101.6505      14613.892      24.448673      24.448673      24.448673    
      9500   404.97473     -2800.7429      45.175541     -2755.5674      946.06876      14618.277      24.451118      24.451118      24.451118    
     10000   403.49385     -2802.4207      45.010346     -2757.4103      630.30431      14594.52       24.437866      24.437866      24.437866    
     10500   405.23155     -2804.1489      45.204189     -2758.9447     -56.316269      14630.798      24.458098      24.458098      24.458098    
     11000   414.92507     -2803.9157      46.285516     -2757.6302     -1042.8369      14637.849      24.462026      24.462026      24.462026    
     11500   389.1679      -2806.4537      43.412265     -2763.0414     -319.97255      14558.694      24.417853      24.417853      24.417853    
     12000   403.36884     -2805.1028      44.996402     -2760.1064     -4339.558       14671.043      24.480502      24.480502      24.480502    
     12500   403.0571      -2804.3309      44.961626     -2759.3692     -2052.3414      14641.507      24.464063      24.464063      24.464063    
     13000   387.94515     -2805.2992      43.275866     -2762.0233      610.12581      14606.183      24.444374      24.444374      24.444374    
     13500   379.10017     -2805.2716      42.289194     -2762.9824     -964.00887      14634.576      24.460202      24.460202      24.460202    
     14000   391.74004     -2804.3545      43.699191     -2760.6553     -1340.9053      14637.649      24.461914      24.461914      24.461914    
     14500   402.81895     -2804.0683      44.93506      -2759.1332      935.57182      14606.078      24.444315      24.444315      24.444315    
     15000   420.69556     -2807.5217      46.929223     -2760.5925     -2668.4621      14702.77       24.498137      24.498137      24.498137    
     15500   388.71409     -2803.8801      43.361642     -2760.5185      432.33758      14637.857      24.46203       24.46203       24.46203     
     16000   397.79199     -2805.7592      44.374295     -2761.3849      1530.5157      14589.358      24.434984      24.434984      24.434984    
     16500   395.92019     -2804.6051      44.165493     -2760.4396     -1496.3481      14704.44       24.499064      24.499064      24.499064    
     17000   402.90995     -2806.1936      44.945211     -2761.2483      1226.4626      14622.421      24.453429      24.453429      24.453429    
     17500   394.43055     -2807.4831      43.999322     -2763.4838     -1119.9313      14647.47       24.467384      24.467384      24.467384    
     18000   407.34658     -2806.3374      45.440125     -2760.8972     -3102.2771      14668.427      24.479048      24.479048      24.479048    
     18500   401.00603     -2809.6573      44.732827     -2764.9245      444.30819      14579.248      24.429338      24.429338      24.429338    
     19000   415.89353     -2804.6388      46.393549     -2758.2452     -1971.0476      14693.354      24.492906      24.492906      24.492906    
     19500   401.08456     -2804.4876      44.741587     -2759.746       1472.554       14593.847      24.43749       24.43749       24.43749     
     20000   411.03523     -2806.9165      45.851598     -2761.0649      982.04652      14606.722      24.444674      24.444674      24.444674    
     20500   394.07886     -2807.5354      43.960089     -2763.5753     -1788.478       14635.734      24.460847      24.460847      24.460847    
     21000   415.15878     -2807.1082      46.311587     -2760.7966     -3306.8145      14699.068      24.49608       24.49608       24.49608     
     21500   414.78398     -2807.3728      46.269777     -2761.103      -2416.8214      14701.46       24.497409      24.497409      24.497409    
     22000   405.55392     -2808.201       45.24015      -2762.9608     -314.25775      14633.628      24.459674      24.459674      24.459674    
     22500   376.08304     -2805.8583      41.952629     -2763.9056     -1506.7647      14679.053      24.484957      24.484957      24.484957    
     23000   393.13612     -2811.5994      43.854926     -2767.7445     -425.18369      14626.236      24.455555      24.455555      24.455555    
     23500   401.97487     -2808.4139      44.840902     -2763.573       209.00663      14635.265      24.460587      24.460587      24.460587    
     24000   403.93931     -2807.5345      45.060038     -2762.4745      1120.1897      14640.539      24.463524      24.463524      24.463524    
     24500   383.28504     -2811.2011      42.756023     -2768.4451      2228.1575      14619.998      24.452078      24.452078      24.452078    
     25000   399.11762     -2809.6733      44.522171     -2765.1511     -2684.9995      14764.164      24.532188      24.532188      24.532188    
     25500   395.35496     -2808.1321      44.10244      -2764.0296      1077.1341      14634.384      24.460096      24.460096      24.460096    
     26000   416.78118     -2811.4136      46.492568     -2764.921       2513.099       14573.173      24.425945      24.425945      24.425945    
     26500   405.23633     -2809.2395      45.204723     -2764.0348      451.33679      14646.15       24.466649      24.466649      24.466649    
     27000   406.1889      -2811.7911      45.310983     -2766.4801     -375.77093      14621.284      24.452795      24.452795      24.452795    
     27500   404.46648     -2810.4035      45.118845     -2765.2846      1216.766       14655.655      24.471941      24.471941      24.471941    
     28000   425.34382     -2810.1005      47.447743     -2762.6527      1265.0891      14652.788      24.470345      24.470345      24.470345    
     28500   398.87012     -2810.1058      44.494562     -2765.6112      2506.7003      14577.745      24.428499      24.428499      24.428499    
     29000   408.86378     -2812.3349      45.60937      -2766.7255      1189.4529      14595.279      24.438289      24.438289      24.438289    
     29500   390.83        -2811.6537      43.597675     -2768.0561     -2105.7345      14726.703      24.511422      24.511422      24.511422    
     30000   390.97557     -2812.9548      43.613913     -2769.3408     -1402.3516      14694.284      24.493423      24.493423      24.493423    
     30500   404.06078     -2810.1443      45.073588     -2765.0707      2209.6997      14644.087      24.4655        24.4655        24.4655      
     31000   405.82106     -2808.6124      45.26995      -2763.3425      128.45228      14707.206      24.5006        24.5006        24.5006      
     31500   405.39815     -2811.7871      45.222773     -2766.5643      1089.1775      14646.456      24.46682       24.46682       24.46682     
     32000   396.21443     -2811.142       44.198316     -2766.9437     -2952.026       14726.283      24.511189      24.511189      24.511189    
     32500   403.46847     -2809.2225      45.007515     -2764.215       1810.2728      14648.537      24.467978      24.467978      24.467978    
     33000   400.06534     -2811.6518      44.627891     -2767.0239      891.87384      14610.654      24.446867      24.446867      24.446867    
     33500   407.20559     -2810.1217      45.424397     -2764.6973      373.46008      14712.029      24.503278      24.503278      24.503278    
     34000   407.49431     -2811.3488      45.456604     -2765.8922      2580.9527      14625.524      24.455158      24.455158      24.455158    
     34500   402.57495     -2814.5864      44.907841     -2769.6786      2708.8771      14618.101      24.45102       24.45102       24.45102     
     35000   395.41451     -2811.0841      44.109084     -2766.975      -2940.3799      14760.262      24.530027      24.530027      24.530027    
     35500   385.99358     -2810.8187      43.058165     -2767.7605      1723.0127      14645.376      24.466218      24.466218      24.466218    
     36000   381.42234     -2812.3508      42.548236     -2769.8025      91.089508      14714.363      24.504574      24.504574      24.504574    
     36500   410.59166     -2813.0761      45.802118     -2767.274      -483.07864      14667.405      24.478479      24.478479      24.478479    
     37000   425.2428      -2810.2064      47.436475     -2762.77        332.94463      14717.89       24.506532      24.506532      24.506532    
     37500   392.70353     -2815.3548      43.80667      -2771.5481      598.53307      14656.99       24.472684      24.472684      24.472684    
     38000   398.41445     -2813.8103      44.443731     -2769.3666     -665.40958      14752.39       24.525665      24.525665      24.525665    
     38500   390.50311     -2817.2966      43.56121      -2773.7354      1588.6609      14609.359      24.446145      24.446145      24.446145    
     39000   390.30358     -2815.7228      43.538952     -2772.1838      578.87764      14694.831      24.493726      24.493726      24.493726    
     39500   406.39718     -2816.6416      45.334217     -2771.3074     -2307.7691      14737.756      24.517553      24.517553      24.517553    
     40000   392.96236     -2817.6279      43.835542     -2773.7923     -2807.8788      14793.224      24.548273      24.548273      24.548273    
     40500   385.47364     -2816.1723      43.000165     -2773.1721     -1624.1897      14759.681      24.529705      24.529705      24.529705    
     41000   403.13387     -2818.3282      44.97019      -2773.3581      2149.5077      14642.665      24.464708      24.464708      24.464708    
     41500   390.39188     -2816.3849      43.548802     -2772.8361     -102.14529      14733.639      24.51527       24.51527       24.51527     
     42000   406.61653     -2816.5954      45.358686     -2771.2367     -1170.9702      14766.737      24.533613      24.533613      24.533613    
     42500   399.83847     -2818.2488      44.602583     -2773.6462      127.41906      14666.129      24.477769      24.477769      24.477769    
     43000   392.03999     -2817.3526      43.732651     -2773.6199     -1451.4508      14749.84       24.524252      24.524252      24.524252    
     43500   390.77388     -2818.1671      43.591414     -2774.5757      565.91301      14666.082      24.477743      24.477743      24.477743    
     44000   397.6859      -2821.9495      44.362461     -2777.5871     -1933.3873      14687.06       24.489408      24.489408      24.489408    
     44500   398.3004      -2822.2275      44.43101      -2777.7965     -1781.2241      14724.123      24.509991      24.509991      24.509991    
     45000   395.72079     -2820.5378      44.143249     -2776.3946     -1482.7241      14765.366      24.532854      24.532854      24.532854    
     45500   387.91378     -2825.8737      43.272366     -2782.6014      700.27956      14623.665      24.454122      24.454122      24.454122    
     46000   418.45093     -2826.3476      46.678831     -2779.6688      1646.7509      14637.688      24.461936      24.461936      24.461936    
     46500   407.49038     -2832.2873      45.456165     -2786.8311      830.17891      14646.655      24.46693       24.46693       24.46693     
     47000   419.06056     -2833.0596      46.746836     -2786.3128      1839.4399      14652.914      24.470415      24.470415      24.470415    
     47500   412.85558     -2837.5406      46.054661     -2791.4859      2156.1677      14566.096      24.42199       24.42199       24.42199     
     48000   399.7857      -2839.7156      44.596696     -2795.1189     -315.22668      14624.137      24.454385      24.454385      24.454385    
     48500   396.09024     -2842.5329      44.184462     -2798.3484      1618.5458      14569.037      24.423634      24.423634      24.423634    
     49000   400.98582     -2844.8497      44.730572     -2800.1191     -27.786984      14526.899      24.400065      24.400065      24.400065    
     49500   409.35684     -2845.3382      45.664371     -2799.6738      2079.5911      14499.498      24.384713      24.384713      24.384713    
     50000   389.45506     -2848.412       43.444298     -2804.9677     -1654.347       14618.826      24.451424      24.451424      24.451424    
Loop time of 707.829 on 8 procs for 50000 steps with 864 atoms

Performance: 6.103 ns/day, 3.932 hours/ns, 70.639 timesteps/s, 61.032 katom-step/s
89.9% CPU use with 1 MPI tasks x 8 OpenMP threads

MPI task timing breakdown:
Section |  min time  |  avg time  |  max time  |%varavg| %total
---------------------------------------------------------------
Pair    | 639.86     | 639.86     | 639.86     |   0.0 | 90.40
Neigh   | 0.13149    | 0.13149    | 0.13149    |   0.0 |  0.02
Comm    | 0.50405    | 0.50405    | 0.50405    |   0.0 |  0.07
Output  | 0.007385   | 0.007385   | 0.007385   |   0.0 |  0.00
Modify  | 67.214     | 67.214     | 67.214     |   0.0 |  9.50
Other   |            | 0.116      |            |       |  0.02

Nlocal:            864 ave         864 max         864 min
Histogram: 1 0 0 0 0 0 0 0 0 0
Nghost:           3057 ave        3057 max        3057 min
Histogram: 1 0 0 0 0 0 0 0 0 0
Neighs:          55011 ave       55011 max       55011 min
Histogram: 1 0 0 0 0 0 0 0 0 0
FullNghs:       110022 ave      110022 max      110022 min
Histogram: 1 0 0 0 0 0 0 0 0 0

Total # of neighbors = 110022
Ave neighs/atom = 127.34028
Neighbor list builds = 90
Dangerous builds = 0

=== FINAL RESULTS: FCC at 400 K ===
Atoms: 864 | PE/atom: -3.28221236956344 eV/atom
WARNING: Detected non-ASCII characters in input. Will try to continue by replacing with ASCII equivalents where known. (src/input.cpp:479)
Volume: 14618.8258624967 …³ | Area: 597.872156798362 ²
==========================================
FCC 400 864 -3.28221236956344 14618.8258624967 24.4514244329111 24.4514244329111 24.4514244329111 597.872156798362
Simulation complete!
Total wall time: 0:16:18
