# FCC structure - OPTIMIZED (smaller supercell)
# Composition: {'Al': 0.75, 'Fe': 0.0, 'Ni': 0.25}
# Generated for Assignment 2 - MM309 (Optimized)

864 atoms
3 atom types

0.0 23.50500000 xlo xhi
0.0 23.50500000 ylo yhi
0.0 23.50500000 zlo zhi

Masses

1 26.9815  # Al
2 55.8450  # Fe
3 58.6934  # Ni

Atoms # atomic

1 1 0.00000000 0.00000000 0.00000000
2 1 1.95875000 1.95875000 0.00000000
3 1 1.95875000 0.00000000 1.95875000
4 1 0.00000000 1.95875000 1.95875000
5 1 0.00000000 0.00000000 3.91750000
6 3 1.95875000 1.95875000 3.91750000
7 1 1.95875000 0.00000000 5.87625000
8 1 0.00000000 1.95875000 5.87625000
9 1 0.00000000 0.00000000 7.83500000
10 1 1.95875000 1.95875000 7.83500000
11 1 1.95875000 0.00000000 9.79375000
12 1 0.00000000 1.95875000 9.79375000
13 3 0.00000000 0.00000000 11.75250000
14 1 1.95875000 1.95875000 11.75250000
15 3 1.95875000 0.00000000 13.71125000
16 1 0.00000000 1.95875000 13.71125000
17 1 0.00000000 0.00000000 15.67000000
18 1 1.95875000 1.95875000 15.67000000
19 1 1.95875000 0.00000000 17.62875000
20 1 0.00000000 1.95875000 17.62875000
21 1 0.00000000 0.00000000 19.58750000
22 1 1.95875000 1.95875000 19.58750000
23 1 1.95875000 0.00000000 21.54625000
24 1 0.00000000 1.95875000 21.54625000
25 1 0.00000000 3.91750000 0.00000000
26 3 1.95875000 5.87625000 0.00000000
27 3 1.95875000 3.91750000 1.95875000
28 1 0.00000000 5.87625000 1.95875000
29 1 0.00000000 3.91750000 3.91750000
30 3 1.95875000 5.87625000 3.91750000
31 1 1.95875000 3.91750000 5.87625000
32 1 0.00000000 5.87625000 5.87625000
33 1 0.00000000 3.91750000 7.83500000
34 1 1.95875000 5.87625000 7.83500000
35 1 1.95875000 3.91750000 9.79375000
36 3 0.00000000 5.87625000 9.79375000
37 3 0.00000000 3.91750000 11.75250000
38 1 1.95875000 5.87625000 11.75250000
39 3 1.95875000 3.91750000 13.71125000
40 1 0.00000000 5.87625000 13.71125000
41 3 0.00000000 3.91750000 15.67000000
42 1 1.95875000 5.87625000 15.67000000
43 1 1.95875000 3.91750000 17.62875000
44 1 0.00000000 5.87625000 17.62875000
45 3 0.00000000 3.91750000 19.58750000
46 1 1.95875000 5.87625000 19.58750000
47 1 1.95875000 3.91750000 21.54625000
48 1 0.00000000 5.87625000 21.54625000
49 1 0.00000000 7.83500000 0.00000000
50 1 1.95875000 9.79375000 0.00000000
51 1 1.95875000 7.83500000 1.95875000
52 1 0.00000000 9.79375000 1.95875000
53 1 0.00000000 7.83500000 3.91750000
54 1 1.95875000 9.79375000 3.91750000
55 1 1.95875000 7.83500000 5.87625000
56 1 0.00000000 9.79375000 5.87625000
57 1 0.00000000 7.83500000 7.83500000
58 1 1.95875000 9.79375000 7.83500000
59 1 1.95875000 7.83500000 9.79375000
60 1 0.00000000 9.79375000 9.79375000
61 1 0.00000000 7.83500000 11.75250000
62 3 1.95875000 9.79375000 11.75250000
63 3 1.95875000 7.83500000 13.71125000
64 1 0.00000000 9.79375000 13.71125000
65 1 0.00000000 7.83500000 15.67000000
66 1 1.95875000 9.79375000 15.67000000
67 1 1.95875000 7.83500000 17.62875000
68 1 0.00000000 9.79375000 17.62875000
69 1 0.00000000 7.83500000 19.58750000
70 3 1.95875000 9.79375000 19.58750000
71 1 1.95875000 7.83500000 21.54625000
72 1 0.00000000 9.79375000 21.54625000
73 3 0.00000000 11.75250000 0.00000000
74 1 1.95875000 13.71125000 0.00000000
75 1 1.95875000 11.75250000 1.95875000
76 1 0.00000000 13.71125000 1.95875000
77 3 0.00000000 11.75250000 3.91750000
78 1 1.95875000 13.71125000 3.91750000
79 3 1.95875000 11.75250000 5.87625000
80 1 0.00000000 13.71125000 5.87625000
81 1 0.00000000 11.75250000 7.83500000
82 1 1.95875000 13.71125000 7.83500000
83 1 1.95875000 11.75250000 9.79375000
84 1 0.00000000 13.71125000 9.79375000
85 1 0.00000000 11.75250000 11.75250000
86 1 1.95875000 13.71125000 11.75250000
87 1 1.95875000 11.75250000 13.71125000
88 1 0.00000000 13.71125000 13.71125000
89 1 0.00000000 11.75250000 15.67000000
90 1 1.95875000 13.71125000 15.67000000
91 1 1.95875000 11.75250000 17.62875000
92 3 0.00000000 13.71125000 17.62875000
93 3 0.00000000 11.75250000 19.58750000
94 1 1.95875000 13.71125000 19.58750000
95 3 1.95875000 11.75250000 21.54625000
96 1 0.00000000 13.71125000 21.54625000
97 1 0.00000000 15.67000000 0.00000000
98 1 1.95875000 17.62875000 0.00000000
99 1 1.95875000 15.67000000 1.95875000
100 1 0.00000000 17.62875000 1.95875000
101 3 0.00000000 15.67000000 3.91750000
102 1 1.95875000 17.62875000 3.91750000
103 1 1.95875000 15.67000000 5.87625000
104 3 0.00000000 17.62875000 5.87625000
105 1 0.00000000 15.67000000 7.83500000
106 3 1.95875000 17.62875000 7.83500000
107 1 1.95875000 15.67000000 9.79375000
108 1 0.00000000 17.62875000 9.79375000
109 3 0.00000000 15.67000000 11.75250000
110 1 1.95875000 17.62875000 11.75250000
111 3 1.95875000 15.67000000 13.71125000
112 3 0.00000000 17.62875000 13.71125000
113 1 0.00000000 15.67000000 15.67000000
114 1 1.95875000 17.62875000 15.67000000
115 1 1.95875000 15.67000000 17.62875000
116 3 0.00000000 17.62875000 17.62875000
117 1 0.00000000 15.67000000 19.58750000
118 1 1.95875000 17.62875000 19.58750000
119 3 1.95875000 15.67000000 21.54625000
120 1 0.00000000 17.62875000 21.54625000
121 1 0.00000000 19.58750000 0.00000000
122 1 1.95875000 21.54625000 0.00000000
123 3 1.95875000 19.58750000 1.95875000
124 3 0.00000000 21.54625000 1.95875000
125 1 0.00000000 19.58750000 3.91750000
126 1 1.95875000 21.54625000 3.91750000
127 1 1.95875000 19.58750000 5.87625000
128 1 0.00000000 21.54625000 5.87625000
129 1 0.00000000 19.58750000 7.83500000
130 1 1.95875000 21.54625000 7.83500000
131 1 1.95875000 19.58750000 9.79375000
132 1 0.00000000 21.54625000 9.79375000
133 1 0.00000000 19.58750000 11.75250000
134 1 1.95875000 21.54625000 11.75250000
135 3 1.95875000 19.58750000 13.71125000
136 1 0.00000000 21.54625000 13.71125000
137 3 0.00000000 19.58750000 15.67000000
138 1 1.95875000 21.54625000 15.67000000
139 1 1.95875000 19.58750000 17.62875000
140 3 0.00000000 21.54625000 17.62875000
141 1 0.00000000 19.58750000 19.58750000
142 1 1.95875000 21.54625000 19.58750000
143 1 1.95875000 19.58750000 21.54625000
144 1 0.00000000 21.54625000 21.54625000
145 1 3.91750000 0.00000000 0.00000000
146 1 5.87625000 1.95875000 0.00000000
147 1 5.87625000 0.00000000 1.95875000
148 1 3.91750000 1.95875000 1.95875000
149 3 3.91750000 0.00000000 3.91750000
150 3 5.87625000 1.95875000 3.91750000
151 1 5.87625000 0.00000000 5.87625000
152 1 3.91750000 1.95875000 5.87625000
153 3 3.91750000 0.00000000 7.83500000
154 1 5.87625000 1.95875000 7.83500000
155 1 5.87625000 0.00000000 9.79375000
156 1 3.91750000 1.95875000 9.79375000
157 1 3.91750000 0.00000000 11.75250000
158 1 5.87625000 1.95875000 11.75250000
159 1 5.87625000 0.00000000 13.71125000
160 1 3.91750000 1.95875000 13.71125000
161 3 3.91750000 0.00000000 15.67000000
162 3 5.87625000 1.95875000 15.67000000
163 1 5.87625000 0.00000000 17.62875000
164 1 3.91750000 1.95875000 17.62875000
165 1 3.91750000 0.00000000 19.58750000
166 3 5.87625000 1.95875000 19.58750000
167 1 5.87625000 0.00000000 21.54625000
168 1 3.91750000 1.95875000 21.54625000
169 1 3.91750000 3.91750000 0.00000000
170 1 5.87625000 5.87625000 0.00000000
171 1 5.87625000 3.91750000 1.95875000
172 3 3.91750000 5.87625000 1.95875000
173 1 3.91750000 3.91750000 3.91750000
174 1 5.87625000 5.87625000 3.91750000
175 3 5.87625000 3.91750000 5.87625000
176 3 3.91750000 5.87625000 5.87625000
177 3 3.91750000 3.91750000 7.83500000
178 1 5.87625000 5.87625000 7.83500000
179 3 5.87625000 3.91750000 9.79375000
180 1 3.91750000 5.87625000 9.79375000
181 3 3.91750000 3.91750000 11.75250000
182 1 5.87625000 5.87625000 11.75250000
183 1 5.87625000 3.91750000 13.71125000
184 1 3.91750000 5.87625000 13.71125000
185 1 3.91750000 3.91750000 15.67000000
186 1 5.87625000 5.87625000 15.67000000
187 3 5.87625000 3.91750000 17.62875000
188 3 3.91750000 5.87625000 17.62875000
189 1 3.91750000 3.91750000 19.58750000
190 1 5.87625000 5.87625000 19.58750000
191 1 5.87625000 3.91750000 21.54625000
192 1 3.91750000 5.87625000 21.54625000
193 1 3.91750000 7.83500000 0.00000000
194 1 5.87625000 9.79375000 0.00000000
195 1 5.87625000 7.83500000 1.95875000
196 3 3.91750000 9.79375000 1.95875000
197 1 3.91750000 7.83500000 3.91750000
198 1 5.87625000 9.79375000 3.91750000
199 1 5.87625000 7.83500000 5.87625000
200 1 3.91750000 9.79375000 5.87625000
201 1 3.91750000 7.83500000 7.83500000
202 1 5.87625000 9.79375000 7.83500000
203 3 5.87625000 7.83500000 9.79375000
204 3 3.91750000 9.79375000 9.79375000
205 1 3.91750000 7.83500000 11.75250000
206 3 5.87625000 9.79375000 11.75250000
207 1 5.87625000 7.83500000 13.71125000
208 1 3.91750000 9.79375000 13.71125000
209 1 3.91750000 7.83500000 15.67000000
210 3 5.87625000 9.79375000 15.67000000
211 3 5.87625000 7.83500000 17.62875000
212 1 3.91750000 9.79375000 17.62875000
213 3 3.91750000 7.83500000 19.58750000
214 3 5.87625000 9.79375000 19.58750000
215 1 5.87625000 7.83500000 21.54625000
216 1 3.91750000 9.79375000 21.54625000
217 1 3.91750000 11.75250000 0.00000000
218 3 5.87625000 13.71125000 0.00000000
219 1 5.87625000 11.75250000 1.95875000
220 3 3.91750000 13.71125000 1.95875000
221 1 3.91750000 11.75250000 3.91750000
222 1 5.87625000 13.71125000 3.91750000
223 1 5.87625000 11.75250000 5.87625000
224 1 3.91750000 13.71125000 5.87625000
225 1 3.91750000 11.75250000 7.83500000
226 3 5.87625000 13.71125000 7.83500000
227 1 5.87625000 11.75250000 9.79375000
228 3 3.91750000 13.71125000 9.79375000
229 3 3.91750000 11.75250000 11.75250000
230 1 5.87625000 13.71125000 11.75250000
231 1 5.87625000 11.75250000 13.71125000
232 1 3.91750000 13.71125000 13.71125000
233 1 3.91750000 11.75250000 15.67000000
234 1 5.87625000 13.71125000 15.67000000
235 3 5.87625000 11.75250000 17.62875000
236 1 3.91750000 13.71125000 17.62875000
237 1 3.91750000 11.75250000 19.58750000
238 3 5.87625000 13.71125000 19.58750000
239 3 5.87625000 11.75250000 21.54625000
240 1 3.91750000 13.71125000 21.54625000
241 1 3.91750000 15.67000000 0.00000000
242 1 5.87625000 17.62875000 0.00000000
243 1 5.87625000 15.67000000 1.95875000
244 1 3.91750000 17.62875000 1.95875000
245 1 3.91750000 15.67000000 3.91750000
246 1 5.87625000 17.62875000 3.91750000
247 3 5.87625000 15.67000000 5.87625000
248 1 3.91750000 17.62875000 5.87625000
249 1 3.91750000 15.67000000 7.83500000
250 1 5.87625000 17.62875000 7.83500000
251 1 5.87625000 15.67000000 9.79375000
252 3 3.91750000 17.62875000 9.79375000
253 1 3.91750000 15.67000000 11.75250000
254 1 5.87625000 17.62875000 11.75250000
255 1 5.87625000 15.67000000 13.71125000
256 1 3.91750000 17.62875000 13.71125000
257 1 3.91750000 15.67000000 15.67000000
258 1 5.87625000 17.62875000 15.67000000
259 1 5.87625000 15.67000000 17.62875000
260 1 3.91750000 17.62875000 17.62875000
261 1 3.91750000 15.67000000 19.58750000
262 1 5.87625000 17.62875000 19.58750000
263 1 5.87625000 15.67000000 21.54625000
264 1 3.91750000 17.62875000 21.54625000
265 1 3.91750000 19.58750000 0.00000000
266 1 5.87625000 21.54625000 0.00000000
267 1 5.87625000 19.58750000 1.95875000
268 1 3.91750000 21.54625000 1.95875000
269 1 3.91750000 19.58750000 3.91750000
270 1 5.87625000 21.54625000 3.91750000
271 1 5.87625000 19.58750000 5.87625000
272 1 3.91750000 21.54625000 5.87625000
273 3 3.91750000 19.58750000 7.83500000
274 1 5.87625000 21.54625000 7.83500000
275 1 5.87625000 19.58750000 9.79375000
276 3 3.91750000 21.54625000 9.79375000
277 1 3.91750000 19.58750000 11.75250000
278 1 5.87625000 21.54625000 11.75250000
279 1 5.87625000 19.58750000 13.71125000
280 1 3.91750000 21.54625000 13.71125000
281 3 3.91750000 19.58750000 15.67000000
282 1 5.87625000 21.54625000 15.67000000
283 1 5.87625000 19.58750000 17.62875000
284 1 3.91750000 21.54625000 17.62875000
285 1 3.91750000 19.58750000 19.58750000
286 1 5.87625000 21.54625000 19.58750000
287 1 5.87625000 19.58750000 21.54625000
288 1 3.91750000 21.54625000 21.54625000
289 1 7.83500000 0.00000000 0.00000000
290 1 9.79375000 1.95875000 0.00000000
291 1 9.79375000 0.00000000 1.95875000
292 3 7.83500000 1.95875000 1.95875000
293 1 7.83500000 0.00000000 3.91750000
294 3 9.79375000 1.95875000 3.91750000
295 3 9.79375000 0.00000000 5.87625000
296 1 7.83500000 1.95875000 5.87625000
297 1 7.83500000 0.00000000 7.83500000
298 1 9.79375000 1.95875000 7.83500000
299 1 9.79375000 0.00000000 9.79375000
300 1 7.83500000 1.95875000 9.79375000
301 1 7.83500000 0.00000000 11.75250000
302 3 9.79375000 1.95875000 11.75250000
303 1 9.79375000 0.00000000 13.71125000
304 1 7.83500000 1.95875000 13.71125000
305 1 7.83500000 0.00000000 15.67000000
306 1 9.79375000 1.95875000 15.67000000
307 1 9.79375000 0.00000000 17.62875000
308 1 7.83500000 1.95875000 17.62875000
309 3 7.83500000 0.00000000 19.58750000
310 1 9.79375000 1.95875000 19.58750000
311 1 9.79375000 0.00000000 21.54625000
312 1 7.83500000 1.95875000 21.54625000
313 1 7.83500000 3.91750000 0.00000000
314 1 9.79375000 5.87625000 0.00000000
315 1 9.79375000 3.91750000 1.95875000
316 1 7.83500000 5.87625000 1.95875000
317 1 7.83500000 3.91750000 3.91750000
318 1 9.79375000 5.87625000 3.91750000
319 3 9.79375000 3.91750000 5.87625000
320 1 7.83500000 5.87625000 5.87625000
321 1 7.83500000 3.91750000 7.83500000
322 3 9.79375000 5.87625000 7.83500000
323 1 9.79375000 3.91750000 9.79375000
324 1 7.83500000 5.87625000 9.79375000
325 3 7.83500000 3.91750000 11.75250000
326 3 9.79375000 5.87625000 11.75250000
327 1 9.79375000 3.91750000 13.71125000
328 1 7.83500000 5.87625000 13.71125000
329 3 7.83500000 3.91750000 15.67000000
330 1 9.79375000 5.87625000 15.67000000
331 1 9.79375000 3.91750000 17.62875000
332 3 7.83500000 5.87625000 17.62875000
333 1 7.83500000 3.91750000 19.58750000
334 1 9.79375000 5.87625000 19.58750000
335 1 9.79375000 3.91750000 21.54625000
336 1 7.83500000 5.87625000 21.54625000
337 1 7.83500000 7.83500000 0.00000000
338 1 9.79375000 9.79375000 0.00000000
339 1 9.79375000 7.83500000 1.95875000
340 3 7.83500000 9.79375000 1.95875000
341 3 7.83500000 7.83500000 3.91750000
342 1 9.79375000 9.79375000 3.91750000
343 1 9.79375000 7.83500000 5.87625000
344 1 7.83500000 9.79375000 5.87625000
345 1 7.83500000 7.83500000 7.83500000
346 1 9.79375000 9.79375000 7.83500000
347 3 9.79375000 7.83500000 9.79375000
348 1 7.83500000 9.79375000 9.79375000
349 1 7.83500000 7.83500000 11.75250000
350 1 9.79375000 9.79375000 11.75250000
351 1 9.79375000 7.83500000 13.71125000
352 1 7.83500000 9.79375000 13.71125000
353 1 7.83500000 7.83500000 15.67000000
354 1 9.79375000 9.79375000 15.67000000
355 1 9.79375000 7.83500000 17.62875000
356 1 7.83500000 9.79375000 17.62875000
357 1 7.83500000 7.83500000 19.58750000
358 1 9.79375000 9.79375000 19.58750000
359 1 9.79375000 7.83500000 21.54625000
360 1 7.83500000 9.79375000 21.54625000
361 1 7.83500000 11.75250000 0.00000000
362 1 9.79375000 13.71125000 0.00000000
363 1 9.79375000 11.75250000 1.95875000
364 3 7.83500000 13.71125000 1.95875000
365 3 7.83500000 11.75250000 3.91750000
366 1 9.79375000 13.71125000 3.91750000
367 1 9.79375000 11.75250000 5.87625000
368 1 7.83500000 13.71125000 5.87625000
369 1 7.83500000 11.75250000 7.83500000
370 1 9.79375000 13.71125000 7.83500000
371 3 9.79375000 11.75250000 9.79375000
372 1 7.83500000 13.71125000 9.79375000
373 1 7.83500000 11.75250000 11.75250000
374 1 9.79375000 13.71125000 11.75250000
375 1 9.79375000 11.75250000 13.71125000
376 1 7.83500000 13.71125000 13.71125000
377 1 7.83500000 11.75250000 15.67000000
378 1 9.79375000 13.71125000 15.67000000
379 1 9.79375000 11.75250000 17.62875000
380 1 7.83500000 13.71125000 17.62875000
381 1 7.83500000 11.75250000 19.58750000
382 3 9.79375000 13.71125000 19.58750000
383 3 9.79375000 11.75250000 21.54625000
384 3 7.83500000 13.71125000 21.54625000
385 1 7.83500000 15.67000000 0.00000000
386 3 9.79375000 17.62875000 0.00000000
387 1 9.79375000 15.67000000 1.95875000
388 3 7.83500000 17.62875000 1.95875000
389 1 7.83500000 15.67000000 3.91750000
390 1 9.79375000 17.62875000 3.91750000
391 3 9.79375000 15.67000000 5.87625000
392 1 7.83500000 17.62875000 5.87625000
393 1 7.83500000 15.67000000 7.83500000
394 1 9.79375000 17.62875000 7.83500000
395 3 9.79375000 15.67000000 9.79375000
396 1 7.83500000 17.62875000 9.79375000
397 1 7.83500000 15.67000000 11.75250000
398 1 9.79375000 17.62875000 11.75250000
399 1 9.79375000 15.67000000 13.71125000
400 1 7.83500000 17.62875000 13.71125000
401 3 7.83500000 15.67000000 15.67000000
402 1 9.79375000 17.62875000 15.67000000
403 1 9.79375000 15.67000000 17.62875000
404 1 7.83500000 17.62875000 17.62875000
405 1 7.83500000 15.67000000 19.58750000
406 1 9.79375000 17.62875000 19.58750000
407 3 9.79375000 15.67000000 21.54625000
408 1 7.83500000 17.62875000 21.54625000
409 1 7.83500000 19.58750000 0.00000000
410 1 9.79375000 21.54625000 0.00000000
411 1 9.79375000 19.58750000 1.95875000
412 1 7.83500000 21.54625000 1.95875000
413 1 7.83500000 19.58750000 3.91750000
414 1 9.79375000 21.54625000 3.91750000
415 3 9.79375000 19.58750000 5.87625000
416 1 7.83500000 21.54625000 5.87625000
417 1 7.83500000 19.58750000 7.83500000
418 1 9.79375000 21.54625000 7.83500000
419 1 9.79375000 19.58750000 9.79375000
420 1 7.83500000 21.54625000 9.79375000
421 3 7.83500000 19.58750000 11.75250000
422 1 9.79375000 21.54625000 11.75250000
423 1 9.79375000 19.58750000 13.71125000
424 1 7.83500000 21.54625000 13.71125000
425 3 7.83500000 19.58750000 15.67000000
426 3 9.79375000 21.54625000 15.67000000
427 3 9.79375000 19.58750000 17.62875000
428 1 7.83500000 21.54625000 17.62875000
429 3 7.83500000 19.58750000 19.58750000
430 1 9.79375000 21.54625000 19.58750000
431 3 9.79375000 19.58750000 21.54625000
432 1 7.83500000 21.54625000 21.54625000
433 3 11.75250000 0.00000000 0.00000000
434 1 13.71125000 1.95875000 0.00000000
435 1 13.71125000 0.00000000 1.95875000
436 1 11.75250000 1.95875000 1.95875000
437 1 11.75250000 0.00000000 3.91750000
438 1 13.71125000 1.95875000 3.91750000
439 1 13.71125000 0.00000000 5.87625000
440 1 11.75250000 1.95875000 5.87625000
441 1 11.75250000 0.00000000 7.83500000
442 3 13.71125000 1.95875000 7.83500000
443 1 13.71125000 0.00000000 9.79375000
444 3 11.75250000 1.95875000 9.79375000
445 3 11.75250000 0.00000000 11.75250000
446 1 13.71125000 1.95875000 11.75250000
447 1 13.71125000 0.00000000 13.71125000
448 1 11.75250000 1.95875000 13.71125000
449 1 11.75250000 0.00000000 15.67000000
450 1 13.71125000 1.95875000 15.67000000
451 1 13.71125000 0.00000000 17.62875000
452 1 11.75250000 1.95875000 17.62875000
453 1 11.75250000 0.00000000 19.58750000
454 1 13.71125000 1.95875000 19.58750000
455 1 13.71125000 0.00000000 21.54625000
456 3 11.75250000 1.95875000 21.54625000
457 1 11.75250000 3.91750000 0.00000000
458 1 13.71125000 5.87625000 0.00000000
459 3 13.71125000 3.91750000 1.95875000
460 1 11.75250000 5.87625000 1.95875000
461 3 11.75250000 3.91750000 3.91750000
462 1 13.71125000 5.87625000 3.91750000
463 1 13.71125000 3.91750000 5.87625000
464 3 11.75250000 5.87625000 5.87625000
465 1 11.75250000 3.91750000 7.83500000
466 1 13.71125000 5.87625000 7.83500000
467 1 13.71125000 3.91750000 9.79375000
468 1 11.75250000 5.87625000 9.79375000
469 3 11.75250000 3.91750000 11.75250000
470 1 13.71125000 5.87625000 11.75250000
471 1 13.71125000 3.91750000 13.71125000
472 1 11.75250000 5.87625000 13.71125000
473 3 11.75250000 3.91750000 15.67000000
474 1 13.71125000 5.87625000 15.67000000
475 1 13.71125000 3.91750000 17.62875000
476 3 11.75250000 5.87625000 17.62875000
477 1 11.75250000 3.91750000 19.58750000
478 1 13.71125000 5.87625000 19.58750000
479 1 13.71125000 3.91750000 21.54625000
480 1 11.75250000 5.87625000 21.54625000
481 1 11.75250000 7.83500000 0.00000000
482 3 13.71125000 9.79375000 0.00000000
483 1 13.71125000 7.83500000 1.95875000
484 3 11.75250000 9.79375000 1.95875000
485 1 11.75250000 7.83500000 3.91750000
486 1 13.71125000 9.79375000 3.91750000
487 3 13.71125000 7.83500000 5.87625000
488 1 11.75250000 9.79375000 5.87625000
489 1 11.75250000 7.83500000 7.83500000
490 1 13.71125000 9.79375000 7.83500000
491 1 13.71125000 7.83500000 9.79375000
492 1 11.75250000 9.79375000 9.79375000
493 1 11.75250000 7.83500000 11.75250000
494 1 13.71125000 9.79375000 11.75250000
495 1 13.71125000 7.83500000 13.71125000
496 3 11.75250000 9.79375000 13.71125000
497 1 11.75250000 7.83500000 15.67000000
498 1 13.71125000 9.79375000 15.67000000
499 1 13.71125000 7.83500000 17.62875000
500 1 11.75250000 9.79375000 17.62875000
501 3 11.75250000 7.83500000 19.58750000
502 1 13.71125000 9.79375000 19.58750000
503 1 13.71125000 7.83500000 21.54625000
504 1 11.75250000 9.79375000 21.54625000
505 1 11.75250000 11.75250000 0.00000000
506 3 13.71125000 13.71125000 0.00000000
507 3 13.71125000 11.75250000 1.95875000
508 1 11.75250000 13.71125000 1.95875000
509 3 11.75250000 11.75250000 3.91750000
510 1 13.71125000 13.71125000 3.91750000
511 1 13.71125000 11.75250000 5.87625000
512 3 11.75250000 13.71125000 5.87625000
513 1 11.75250000 11.75250000 7.83500000
514 1 13.71125000 13.71125000 7.83500000
515 1 13.71125000 11.75250000 9.79375000
516 3 11.75250000 13.71125000 9.79375000
517 3 11.75250000 11.75250000 11.75250000
518 3 13.71125000 13.71125000 11.75250000
519 1 13.71125000 11.75250000 13.71125000
520 1 11.75250000 13.71125000 13.71125000
521 1 11.75250000 11.75250000 15.67000000
522 1 13.71125000 13.71125000 15.67000000
523 1 13.71125000 11.75250000 17.62875000
524 1 11.75250000 13.71125000 17.62875000
525 1 11.75250000 11.75250000 19.58750000
526 1 13.71125000 13.71125000 19.58750000
527 1 13.71125000 11.75250000 21.54625000
528 1 11.75250000 13.71125000 21.54625000
529 3 11.75250000 15.67000000 0.00000000
530 3 13.71125000 17.62875000 0.00000000
531 1 13.71125000 15.67000000 1.95875000
532 1 11.75250000 17.62875000 1.95875000
533 1 11.75250000 15.67000000 3.91750000
534 1 13.71125000 17.62875000 3.91750000
535 1 13.71125000 15.67000000 5.87625000
536 1 11.75250000 17.62875000 5.87625000
537 1 11.75250000 15.67000000 7.83500000
538 1 13.71125000 17.62875000 7.83500000
539 1 13.71125000 15.67000000 9.79375000
540 1 11.75250000 17.62875000 9.79375000
541 1 11.75250000 15.67000000 11.75250000
542 1 13.71125000 17.62875000 11.75250000
543 1 13.71125000 15.67000000 13.71125000
544 1 11.75250000 17.62875000 13.71125000
545 1 11.75250000 15.67000000 15.67000000
546 3 13.71125000 17.62875000 15.67000000
547 1 13.71125000 15.67000000 17.62875000
548 1 11.75250000 17.62875000 17.62875000
549 3 11.75250000 15.67000000 19.58750000
550 3 13.71125000 17.62875000 19.58750000
551 3 13.71125000 15.67000000 21.54625000
552 1 11.75250000 17.62875000 21.54625000
553 1 11.75250000 19.58750000 0.00000000
554 3 13.71125000 21.54625000 0.00000000
555 1 13.71125000 19.58750000 1.95875000
556 1 11.75250000 21.54625000 1.95875000
557 1 11.75250000 19.58750000 3.91750000
558 1 13.71125000 21.54625000 3.91750000
559 1 13.71125000 19.58750000 5.87625000
560 1 11.75250000 21.54625000 5.87625000
561 1 11.75250000 19.58750000 7.83500000
562 1 13.71125000 21.54625000 7.83500000
563 1 13.71125000 19.58750000 9.79375000
564 3 11.75250000 21.54625000 9.79375000
565 1 11.75250000 19.58750000 11.75250000
566 1 13.71125000 21.54625000 11.75250000
567 1 13.71125000 19.58750000 13.71125000
568 3 11.75250000 21.54625000 13.71125000
569 1 11.75250000 19.58750000 15.67000000
570 1 13.71125000 21.54625000 15.67000000
571 1 13.71125000 19.58750000 17.62875000
572 1 11.75250000 21.54625000 17.62875000
573 3 11.75250000 19.58750000 19.58750000
574 1 13.71125000 21.54625000 19.58750000
575 1 13.71125000 19.58750000 21.54625000
576 1 11.75250000 21.54625000 21.54625000
577 1 15.67000000 0.00000000 0.00000000
578 1 17.62875000 1.95875000 0.00000000
579 3 17.62875000 0.00000000 1.95875000
580 1 15.67000000 1.95875000 1.95875000
581 1 15.67000000 0.00000000 3.91750000
582 1 17.62875000 1.95875000 3.91750000
583 1 17.62875000 0.00000000 5.87625000
584 1 15.67000000 1.95875000 5.87625000
585 1 15.67000000 0.00000000 7.83500000
586 1 17.62875000 1.95875000 7.83500000
587 1 17.62875000 0.00000000 9.79375000
588 1 15.67000000 1.95875000 9.79375000
589 1 15.67000000 0.00000000 11.75250000
590 1 17.62875000 1.95875000 11.75250000
591 3 17.62875000 0.00000000 13.71125000
592 3 15.67000000 1.95875000 13.71125000
593 3 15.67000000 0.00000000 15.67000000
594 1 17.62875000 1.95875000 15.67000000
595 3 17.62875000 0.00000000 17.62875000
596 3 15.67000000 1.95875000 17.62875000
597 1 15.67000000 0.00000000 19.58750000
598 1 17.62875000 1.95875000 19.58750000
599 1 17.62875000 0.00000000 21.54625000
600 1 15.67000000 1.95875000 21.54625000
601 3 15.67000000 3.91750000 0.00000000
602 1 17.62875000 5.87625000 0.00000000
603 1 17.62875000 3.91750000 1.95875000
604 1 15.67000000 5.87625000 1.95875000
605 3 15.67000000 3.91750000 3.91750000
606 1 17.62875000 5.87625000 3.91750000
607 3 17.62875000 3.91750000 5.87625000
608 1 15.67000000 5.87625000 5.87625000
609 3 15.67000000 3.91750000 7.83500000
610 1 17.62875000 5.87625000 7.83500000
611 1 17.62875000 3.91750000 9.79375000
612 3 15.67000000 5.87625000 9.79375000
613 1 15.67000000 3.91750000 11.75250000
614 1 17.62875000 5.87625000 11.75250000
615 3 17.62875000 3.91750000 13.71125000
616 1 15.67000000 5.87625000 13.71125000
617 1 15.67000000 3.91750000 15.67000000
618 1 17.62875000 5.87625000 15.67000000
619 1 17.62875000 3.91750000 17.62875000
620 1 15.67000000 5.87625000 17.62875000
621 3 15.67000000 3.91750000 19.58750000
622 1 17.62875000 5.87625000 19.58750000
623 1 17.62875000 3.91750000 21.54625000
624 1 15.67000000 5.87625000 21.54625000
625 1 15.67000000 7.83500000 0.00000000
626 3 17.62875000 9.79375000 0.00000000
627 1 17.62875000 7.83500000 1.95875000
628 1 15.67000000 9.79375000 1.95875000
629 3 15.67000000 7.83500000 3.91750000
630 1 17.62875000 9.79375000 3.91750000
631 3 17.62875000 7.83500000 5.87625000
632 1 15.67000000 9.79375000 5.87625000
633 1 15.67000000 7.83500000 7.83500000
634 1 17.62875000 9.79375000 7.83500000
635 1 17.62875000 7.83500000 9.79375000
636 1 15.67000000 9.79375000 9.79375000
637 1 15.67000000 7.83500000 11.75250000
638 1 17.62875000 9.79375000 11.75250000
639 1 17.62875000 7.83500000 13.71125000
640 3 15.67000000 9.79375000 13.71125000
641 1 15.67000000 7.83500000 15.67000000
642 1 17.62875000 9.79375000 15.67000000
643 3 17.62875000 7.83500000 17.62875000
644 1 15.67000000 9.79375000 17.62875000
645 3 15.67000000 7.83500000 19.58750000
646 1 17.62875000 9.79375000 19.58750000
647 1 17.62875000 7.83500000 21.54625000
648 3 15.67000000 9.79375000 21.54625000
649 3 15.67000000 11.75250000 0.00000000
650 3 17.62875000 13.71125000 0.00000000
651 1 17.62875000 11.75250000 1.95875000
652 1 15.67000000 13.71125000 1.95875000
653 3 15.67000000 11.75250000 3.91750000
654 1 17.62875000 13.71125000 3.91750000
655 1 17.62875000 11.75250000 5.87625000
656 3 15.67000000 13.71125000 5.87625000
657 1 15.67000000 11.75250000 7.83500000
658 1 17.62875000 13.71125000 7.83500000
659 1 17.62875000 11.75250000 9.79375000
660 3 15.67000000 13.71125000 9.79375000
661 3 15.67000000 11.75250000 11.75250000
662 1 17.62875000 13.71125000 11.75250000
663 3 17.62875000 11.75250000 13.71125000
664 1 15.67000000 13.71125000 13.71125000
665 3 15.67000000 11.75250000 15.67000000
666 3 17.62875000 13.71125000 15.67000000
667 1 17.62875000 11.75250000 17.62875000
668 1 15.67000000 13.71125000 17.62875000
669 1 15.67000000 11.75250000 19.58750000
670 1 17.62875000 13.71125000 19.58750000
671 3 17.62875000 11.75250000 21.54625000
672 1 15.67000000 13.71125000 21.54625000
673 1 15.67000000 15.67000000 0.00000000
674 1 17.62875000 17.62875000 0.00000000
675 1 17.62875000 15.67000000 1.95875000
676 1 15.67000000 17.62875000 1.95875000
677 3 15.67000000 15.67000000 3.91750000
678 1 17.62875000 17.62875000 3.91750000
679 1 17.62875000 15.67000000 5.87625000
680 3 15.67000000 17.62875000 5.87625000
681 1 15.67000000 15.67000000 7.83500000
682 1 17.62875000 17.62875000 7.83500000
683 1 17.62875000 15.67000000 9.79375000
684 1 15.67000000 17.62875000 9.79375000
685 3 15.67000000 15.67000000 11.75250000
686 1 17.62875000 17.62875000 11.75250000
687 1 17.62875000 15.67000000 13.71125000
688 1 15.67000000 17.62875000 13.71125000
689 1 15.67000000 15.67000000 15.67000000
690 1 17.62875000 17.62875000 15.67000000
691 1 17.62875000 15.67000000 17.62875000
692 1 15.67000000 17.62875000 17.62875000
693 3 15.67000000 15.67000000 19.58750000
694 1 17.62875000 17.62875000 19.58750000
695 1 17.62875000 15.67000000 21.54625000
696 1 15.67000000 17.62875000 21.54625000
697 1 15.67000000 19.58750000 0.00000000
698 1 17.62875000 21.54625000 0.00000000
699 1 17.62875000 19.58750000 1.95875000
700 1 15.67000000 21.54625000 1.95875000
701 3 15.67000000 19.58750000 3.91750000
702 1 17.62875000 21.54625000 3.91750000
703 1 17.62875000 19.58750000 5.87625000
704 1 15.67000000 21.54625000 5.87625000
705 1 15.67000000 19.58750000 7.83500000
706 1 17.62875000 21.54625000 7.83500000
707 1 17.62875000 19.58750000 9.79375000
708 1 15.67000000 21.54625000 9.79375000
709 1 15.67000000 19.58750000 11.75250000
710 1 17.62875000 21.54625000 11.75250000
711 1 17.62875000 19.58750000 13.71125000
712 1 15.67000000 21.54625000 13.71125000
713 1 15.67000000 19.58750000 15.67000000
714 1 17.62875000 21.54625000 15.67000000
715 1 17.62875000 19.58750000 17.62875000
716 1 15.67000000 21.54625000 17.62875000
717 1 15.67000000 19.58750000 19.58750000
718 1 17.62875000 21.54625000 19.58750000
719 1 17.62875000 19.58750000 21.54625000
720 3 15.67000000 21.54625000 21.54625000
721 1 19.58750000 0.00000000 0.00000000
722 1 21.54625000 1.95875000 0.00000000
723 3 21.54625000 0.00000000 1.95875000
724 3 19.58750000 1.95875000 1.95875000
725 3 19.58750000 0.00000000 3.91750000
726 3 21.54625000 1.95875000 3.91750000
727 3 21.54625000 0.00000000 5.87625000
728 1 19.58750000 1.95875000 5.87625000
729 1 19.58750000 0.00000000 7.83500000
730 1 21.54625000 1.95875000 7.83500000
731 1 21.54625000 0.00000000 9.79375000
732 1 19.58750000 1.95875000 9.79375000
733 1 19.58750000 0.00000000 11.75250000
734 3 21.54625000 1.95875000 11.75250000
735 3 21.54625000 0.00000000 13.71125000
736 1 19.58750000 1.95875000 13.71125000
737 1 19.58750000 0.00000000 15.67000000