LAMMPS (10 Sep 2025)
  using 8 OpenMP thread(s) per MPI task
Loaded 1 plugins from C:\Users\harsh\Downloads\LAMMPS 64-bit 10Sep2025\plugins
using multi-threaded neighbor list subroutines
Reading data file ...
  orthogonal box = (0 0 0) to (24.3 24.3 24.3)
  1 by 1 by 1 MPI processor grid
  reading atoms ...
  864 atoms
  read_data CPU = 0.021 seconds
=== STAGE 1: Energy Minimization ===
Switching to 'neigh_modify every 1 delay 0 check yes' setting during minimization
No /omp style for force computation currently active
Neighbor list info ...
  update: every = 1 steps, delay = 0 steps, check = yes
  max neighbors/atom: 4000, page size: 100000
  master list distance cutoff = 8
  ghost atom cutoff = 8
  binsize = 4, bins = 7 7 7
  2 neighbor lists, perpetual/occasional/extra = 2 0 0
  (1) pair meam, perpetual
      attributes: full, newton on, omp
      pair build: full/bin/atomonly/omp
      stencil: full/bin/3d
      bin: standard
  (2) pair meam, perpetual, half/full from (1)
      attributes: half, newton on, omp
      pair build: halffull/newton/omp
      stencil: none
      bin: none
Setting up cg style minimization ...
  Unit style    : metal
  Current step  : 0
Per MPI rank memory allocation (min/avg/max) = 20.51 | 20.51 | 20.51 Mbytes
   Step          Temp          PotEng         KinEng         TotEng         Press          Volume           Lx             Ly             Lz      
         0   0             -2903.0314      0             -2903.0314     -0.017393413    14348.907      24.3           24.3           24.3         
         1   0             -2903.0314      0             -2903.0314     -0.017393413    14348.907      24.3           24.3           24.3         
Loop time of 0.025854 on 8 procs for 1 steps with 864 atoms

60.4% CPU use with 1 MPI tasks x 8 OpenMP threads

Minimization stats:
  Stopping criterion = energy tolerance
  Energy initial, next-to-last, final = 
     -2903.03136038828  -2903.03136038828  -2903.03136038828
  Force two-norm initial, final = 2.9054316e-13 2.8416052e-13
  Force max component initial, final = 1.169111e-14 1.169111e-14
  Final line search alpha, max atom move = 1 1.169111e-14
  Iterations, force evaluations = 1 2

MPI task timing breakdown:
Section |  min time  |  avg time  |  max time  |%varavg| %total
---------------------------------------------------------------
Pair    | 0.024871   | 0.024871   | 0.024871   |   0.0 | 96.20
Neigh   | 0          | 0          | 0          |   0.0 |  0.00
Comm    | 4.6e-05    | 4.6e-05    | 4.6e-05    |   0.0 |  0.18
Output  | 0          | 0          | 0          |   0.0 |  0.00
Modify  | 0.000778   | 0.000778   | 0.000778   |   0.0 |  3.01
Other   |            | 0.000159   |            |       |  0.61

Nlocal:            864 ave         864 max         864 min
Histogram: 1 0 0 0 0 0 0 0 0 0
Nghost:           2565 ave        2565 max        2565 min
Histogram: 1 0 0 0 0 0 0 0 0 0
Neighs:          57888 ave       57888 max       57888 min
Histogram: 1 0 0 0 0 0 0 0 0 0
FullNghs:       115776 ave      115776 max      115776 min
Histogram: 1 0 0 0 0 0 0 0 0 0

Total # of neighbors = 115776
Ave neighs/atom = 134
Neighbor list builds = 0
Dangerous builds = 0
Minimized PE/atom: -3.3599900004494 eV/atom
=== STAGE 2: NPT Equilibration at 400 K ===
No /omp style for force computation currently active
Setting up Verlet run ...
  Unit style    : metal
  Current step  : 0
  Time step     : 0.002
Per MPI rank memory allocation (min/avg/max) = 19.38 | 19.38 | 19.38 Mbytes
   Step          Temp          PotEng         KinEng         TotEng         Press          Volume           Lx             Ly             Lz      
         0   400           -2903.0314      44.620602     -2858.4108      3321.4937      14348.907      24.3           24.3           24.3         
       500   395.78875     -2863.9759      44.150831     -2819.8251      3169.5053      14441.973      24.352423      24.352423      24.352423    
      1000   373.80417     -2856.8981      41.698417     -2815.1997      2277.0501      14475.953      24.371507      24.371507      24.371507    
      1500   418.28174     -2856.8564      46.659958     -2810.1964      1756.8031      14502.814      24.386572      24.386572      24.386572    
      2000   409.03689     -2855.0901      45.628681     -2809.4614      1448.4284      14513.76       24.392706      24.392706      24.392706    
      2500   382.97688     -2855.2557      42.721647     -2812.534       1444.4072      14504.826      24.3877        24.3877        24.3877      
      3000   406.99424     -2859.6989      45.40082      -2814.298       1334.8228      14501.254      24.385698      24.385698      24.385698    
      3500   409.57936     -2858.6091      45.689194     -2812.9199      1355.5147      14504.984      24.387789      24.387789      24.387789    
      4000   395.22694     -2855.9188      44.08816      -2811.8306      1280.5947      14505.498      24.388076      24.388076      24.388076    
      4500   407.82108     -2855.8991      45.493055     -2810.406       1355.4945      14507.349      24.389114      24.389114      24.389114    
      5000   399.03039     -2856.5647      44.51244      -2812.0523      1297.7829      14508.169      24.389573      24.389573      24.389573    
      5500   395.07771     -2857.5984      44.071514     -2813.5269      1137.2049      14500.998      24.385554      24.385554      24.385554    
      6000   382.29117     -2859.4331      42.645155     -2816.7879      1353.6502      14493.914      24.381583      24.381583      24.381583    
      6500   409.56834     -2856.3475      45.687965     -2810.6595      761.95152      14520.6        24.396537      24.396537      24.396537    
      7000   413.20421     -2857.8885      46.093551     -2811.7949      193.82086      14526.466      24.399822      24.399822      24.399822    
      7500   386.75722     -2857.2011      43.14335      -2814.0578     -103.49251      14527.399      24.400344      24.400344      24.400344    
      8000   373.14007     -2855.7799      41.624336     -2814.1555     -142.8868       14531.429      24.4026        24.4026        24.4026      
      8500   411.87122     -2856.9908      45.944854     -2811.046      -212.40487      14538.544      24.406582      24.406582      24.406582    
      9000   403.77328     -2857.3567      45.041518     -2812.3151     -579.94512      14538.846      24.406751      24.406751      24.406751    
      9500   397.49096     -2859.731       44.340714     -2815.3902     -526.86133      14535.676      24.404978      24.404978      24.404978    
     10000   375.08453     -2853.5857      41.841244     -2811.7445     -984.43091      14553.119      24.414736      24.414736      24.414736    
     10500   404.50781     -2856.0244      45.123455     -2810.901      -1341.1672      14563.624      24.420609      24.420609      24.420609    
     11000   406.38545     -2855.7462      45.332909     -2810.4133     -2322.2451      14585.023      24.432563      24.432563      24.432563    
     11500   392.72621     -2856.6125      43.8092       -2812.8033     -2858.067       14589.236      24.434916      24.434916      24.434916    
     12000   368.72453     -2856.5549      41.131776     -2815.4231     -2461.5416      14574.81       24.42686       24.42686       24.42686     
     12500   390.97654     -2858.6043      43.614021     -2814.9903     -1571.2607      14557.075      24.416948      24.416948      24.416948    
     13000   405.78127     -2856.9415      45.265512     -2811.676      -1033.0946      14553.672      24.415045      24.415045      24.415045    
     13500   389.84999     -2854.0818      43.488353     -2810.5935     -1010.8322      14556.302      24.416515      24.416515      24.416515    
     14000   398.91421     -2856.8207      44.499481     -2812.3212     -1056.7227      14552.109      24.414171      24.414171      24.414171    
     14500   400.00683     -2857.5202      44.621364     -2812.8988     -837.30792      14548.387      24.412089      24.412089      24.412089    
     15000   404.01955     -2855.1873      45.068989     -2810.1183     -815.08118      14554.741      24.415643      24.415643      24.415643    
     15500   419.49805     -2856.7744      46.795639     -2809.9788     -1223.214       14563.911      24.420769      24.420769      24.420769    
     16000   402.01507     -2855.6333      44.845386     -2810.788      -1457.7813      14566.089      24.421986      24.421986      24.421986    
     16500   397.4837      -2856.3231      44.339905     -2811.9832     -2104.5446      14573.793      24.426291      24.426291      24.426291    
     17000   387.96106     -2857.4555      43.27764      -2814.1779     -2341.0497      14574.776      24.42684       24.42684       24.42684     
     17500   392.68828     -2857.4535      43.804968     -2813.6485     -2101.1788      14575.492      24.42724       24.42724       24.42724     
     18000   389.73724     -2855.2523      43.475775     -2811.7765     -2248.2448      14580.444      24.430006      24.430006      24.430006    
     18500   390.57373     -2856.7842      43.569088     -2813.2151     -2762.6581      14585.709      24.432947      24.432947      24.432947    
     19000   385.85089     -2857.8746      43.042248     -2814.8323     -2698.7484      14581.627      24.430667      24.430667      24.430667    
     19500   388.50146     -2855.9656      43.337922     -2812.6277     -2348.2723      14579.807      24.429651      24.429651      24.429651    
     20000   404.53933     -2855.9581      45.126971     -2810.8311     -1870.1627      14572.908      24.425797      24.425797      24.425797    
Loop time of 236.914 on 8 procs for 20000 steps with 864 atoms

Performance: 14.588 ns/day, 1.645 hours/ns, 84.419 timesteps/s, 72.938 katom-step/s
93.6% CPU use with 1 MPI tasks x 8 OpenMP threads

MPI task timing breakdown:
Section |  min time  |  avg time  |  max time  |%varavg| %total
---------------------------------------------------------------
Pair    | 204.04     | 204.04     | 204.04     |   0.0 | 86.12
Neigh   | 0          | 0          | 0          |   0.0 |  0.00
Comm    | 0.34014    | 0.34014    | 0.34014    |   0.0 |  0.14
Output  | 0.003932   | 0.003932   | 0.003932   |   0.0 |  0.00
Modify  | 32.461     | 32.461     | 32.461     |   0.0 | 13.70
Other   |            | 0.06796    |            |       |  0.03

Nlocal:            864 ave         864 max         864 min
Histogram: 1 0 0 0 0 0 0 0 0 0
Nghost:           2565 ave        2565 max        2565 min
Histogram: 1 0 0 0 0 0 0 0 0 0
Neighs:          57888 ave       57888 max       57888 min
Histogram: 1 0 0 0 0 0 0 0 0 0
FullNghs:       115776 ave      115776 max      115776 min
Histogram: 1 0 0 0 0 0 0 0 0 0

Total # of neighbors = 115776
Ave neighs/atom = 134
Neighbor list builds = 0
Dangerous builds = 0
=== STAGE 3: NPT Production at 400 K ===
No /omp style for force computation currently active
Setting up Verlet run ...
  Unit style    : metal
  Current step  : 0
  Time step     : 0.001
Per MPI rank memory allocation (min/avg/max) = 19.39 | 19.39 | 19.39 Mbytes
   Step          Temp          PotEng         KinEng         TotEng         Press          Volume           Lx             Ly             Lz      
         0   404.53933     -2855.9581      45.126971     -2810.8311     -1870.1627      14572.908      24.425797      24.425797      24.425797    
       500   395.99026     -2857.0124      44.173309     -2812.839      -1983.2709      14572.332      24.425475      24.425475      24.425475    
      1000   408.32477     -2855.8004      45.549243     -2810.2511     -2091.8178      14578.487      24.428914      24.428914      24.428914    
      1500   423.29923     -2855.1382      47.219667     -2807.9186     -2149.1406      14584.671      24.432367      24.432367      24.432367    
      2000   395.95143     -2857.7863      44.168978     -2813.6173     -2528.0446      14584.271      24.432144      24.432144      24.432144    
      2500   396.9853      -2856.2426      44.284308     -2811.9583     -3695.0842      14609.217      24.446066      24.446066      24.446066    
      3000   414.90002     -2853.7683      46.282721     -2807.4856     -3583.2905      14620.394      24.452299      24.452299      24.452299    
      3500   399.36088     -2855.742       44.549307     -2811.1927     -2547.9233      14587.636      24.434022      24.434022      24.434022    
      4000   388.85679     -2856.108       43.37756      -2812.7305     -1522.6624      14567.229      24.422623      24.422623      24.422623    
      4500   399.18984     -2857.1092      44.530228     -2812.5789     -947.40212      14549.657      24.4128        24.4128        24.4128      
      5000   398.57158     -2855.4573      44.46126      -2810.9961     -408.88519      14542.608      24.408857      24.408857      24.408857    
      5500   415.26761     -2856.8176      46.323727     -2810.4939     -75.421465      14538.925      24.406795      24.406795      24.406795    
      6000   406.16151     -2858.0605      45.307928     -2812.7526     -205.7238       14535.594      24.404932      24.404932      24.404932    
      6500   371.33811     -2854.9245      41.423326     -2813.5012      242.41248      14529.407      24.401468      24.401468      24.401468    
      7000   405.22914     -2856.4874      45.203921     -2811.2835      332.57704      14527.184      24.400224      24.400224      24.400224    
      7500   399.4483      -2855.2465      44.559059     -2810.6874      1034.8673      14514.931      24.393362      24.393362      24.393362    
      8000   401.3596      -2857.9551      44.772267     -2813.1828      1945.7007      14490.728      24.379796      24.379796      24.379796    
      8500   387.12747     -2856.5659      43.184652     -2813.3812      2450.1501      14478.588      24.372986      24.372986      24.372986    
      9000   406.98738     -2856.4175      45.400055     -2811.0174      1708.2369      14500.908      24.385504      24.385504      24.385504    
      9500   397.49658     -2854.6737      44.341342     -2810.3323      985.56962      14516.547      24.394267      24.394267      24.394267    
     10000   380.04981     -2858.0198      42.395128     -2815.6246      1201.5884      14499.816      24.384892      24.384892      24.384892    
     10500   386.71668     -2856.6275      43.138827     -2813.4886      1226.8762      14504.09       24.387287      24.387287      24.387287    
     11000   410.13864     -2858.0787      45.751582     -2812.3272      1611.6416      14496.996      24.383311      24.383311      24.383311    
     11500   419.73842     -2855.3607      46.822453     -2808.5383      1277.3316      14510.625      24.39095       24.39095       24.39095     
     12000   401.77523     -2858.2796      44.818632     -2813.461       1656.7368      14489.794      24.379272      24.379272      24.379272    
     12500   394.91666     -2856.7405      44.053548     -2812.6869      2144.1295      14484.214      24.376142      24.376142      24.376142    
     13000   388.79136     -2855.5304      43.370261     -2812.1602      3333.4864      14466.465      24.366181      24.366181      24.366181    
     13500   411.8558      -2855.5528      45.943135     -2809.6097      4140.1718      14451.093      24.357548      24.357548      24.357548    
     14000   427.07297     -2857.1182      47.640632     -2809.4775      4057.6251      14456.176      24.360403      24.360403      24.360403    
     14500   407.36786     -2858.3597      45.442498     -2812.9172      2366.6381      14480.806      24.374231      24.374231      24.374231    
     15000   396.68396     -2858.639       44.250693     -2814.3883      1396.6073      14497.972      24.383858      24.383858      24.383858    
     15500   395.47817     -2855.9326      44.116185     -2811.8164      1330.8852      14504.246      24.387375      24.387375      24.387375    
     16000   400.84769     -2857.6165      44.715163     -2812.9014      1249.7828      14503.335      24.386864      24.386864      24.386864    
     16500   381.83609     -2856.4704      42.594391     -2813.876       1490.6768      14498.05       24.383902      24.383902      24.383902    
     17000   397.87104     -2859.416       44.383113     -2815.0329      1869.7329      14484.838      24.376492      24.376492      24.376492    
     17500   408.64232     -2859.194       45.584666     -2813.6093      2200.5309      14479.589      24.373548      24.373548      24.373548    
     18000   413.66951     -2857.3415      46.145457     -2811.196       2849.1945      14477.516      24.372385      24.372385      24.372385    
     18500   408.231       -2857.7004      45.538782     -2812.1616      3352.5249      14464.065      24.364834      24.364834      24.364834    
     19000   394.35704     -2858.7126      43.991122     -2814.7214      3758.684       14451.168      24.35759       24.35759       24.35759     
     19500   393.15337     -2857.1748      43.85685      -2813.3179      2657.5691      14476.587      24.371863      24.371863      24.371863    
     20000   426.28104     -2858.3654      47.552291     -2810.8131      1130.1886      14509.569      24.390358      24.390358      24.390358    
     20500   397.16236     -2857.0487      44.304059     -2812.7446      674.10525      14517.324      24.394702      24.394702      24.394702    
     21000   397.01406     -2859.4237      44.287516     -2815.1362      580.04048      14514.927      24.39336       24.39336       24.39336     
     21500   398.23049     -2858.0193      44.42321      -2813.596       359.32797      14519.82       24.3961        24.3961        24.3961      
     22000   410.36975     -2856.6952      45.777363     -2810.9178      218.31518      14526.411      24.399791      24.399791      24.399791    
     22500   414.81615     -2856.0126      46.273366     -2809.7393     -64.721541      14533.802      24.403928      24.403928      24.403928    
     23000   407.1938      -2857.5465      45.423081     -2812.1234      134.97328      14529.057      24.401273      24.401273      24.401273    
     23500   413.41023     -2856.439       46.116534     -2810.3225     -265.79756      14539.237      24.40697       24.40697       24.40697     
     24000   400.75363     -2857.0896      44.70467      -2812.3849     -786.01343      14547.755      24.411735      24.411735      24.411735    
     24500   407.83664     -2857.2289      45.494792     -2811.7341     -1255.4473      14558.501      24.417745      24.417745      24.417745    
     25000   414.33322     -2856.2933      46.219495     -2810.0738     -1112.2035      14561.399      24.419365      24.419365      24.419365    
     25500   397.71105     -2856.5844      44.365266     -2812.2191     -1283.041       14555.67       24.416162      24.416162      24.416162    
     26000   409.50082     -2859.0172      45.680433     -2813.3367     -1447.8006      14558.802      24.417913      24.417913      24.417913    
     26500   396.93531     -2859.2039      44.278731     -2814.9252     -1327.1878      14555.162      24.415878      24.415878      24.415878    
     27000   409.07664     -2857.963       45.633115     -2812.3299     -1671.5611      14565.974      24.421922      24.421922      24.421922    
     27500   389.38705     -2855.2791      43.436711     -2811.8424     -1502.2497      14568.863      24.423537      24.423537      24.423537    
     28000   394.3595      -2857.94        43.991396     -2813.9486     -1996.8015      14570.217      24.424293      24.424293      24.424293    
     28500   403.94812     -2858.4471      45.06102      -2813.3861     -2137.009       14574.464      24.426666      24.426666      24.426666    
     29000   403.92778     -2856.5844      45.058752     -2811.5256     -2747.8993      14589.853      24.43526       24.43526       24.43526     
     29500   390.63016     -2856.7589      43.575382     -2813.1835     -3920.2539      14613.079      24.44822       24.44822       24.44822     
     30000   389.92317     -2858.3531      43.496516     -2814.8565     -4641.4164      14623.256      24.453894      24.453894      24.453894    
     30500   395.36616     -2856.6836      44.10369      -2812.5799     -3905.4304      14612.687      24.448001      24.448001      24.448001    
     31000   399.09211     -2855.32        44.519325     -2810.8007     -2330.9614      14581.408      24.430545      24.430545      24.430545    
     31500   398.56492     -2857.0209      44.460517     -2812.5604     -1722.1204      14565.209      24.421494      24.421494      24.421494    
     32000   383.10253     -2856.3964      42.735664     -2813.6607     -1435.9711      14562.114      24.419765      24.419765      24.419765    
     32500   410.88036     -2856.5699      45.834322     -2810.7356     -1360.5476      14565.792      24.421821      24.421821      24.421821    
     33000   401.29257     -2856.6695      44.76479      -2811.9047     -1408.3518      14561.201      24.419255      24.419255      24.419255    
     33500   392.91502     -2858.8501      43.830262     -2815.0199     -1282.617       14552.276      24.414264      24.414264      24.414264    
     34000   393.01039     -2858.8709      43.8409       -2815.03       -1471.7273      14555.729      24.416195      24.416195      24.416195    
     34500   410.42358     -2858.2993      45.783368     -2812.5159     -1890.9364      14566.822      24.422396      24.422396      24.422396    
     35000   399.27759     -2854.6022      44.540016     -2810.0621     -1659.7762      14574.033      24.426425      24.426425      24.426425    
     35500   407.12361     -2856.1639      45.415252     -2810.7486     -1259.762       14560.182      24.418685      24.418685      24.418685    
     36000   390.02543     -2858.4676      43.507924     -2814.9596     -742.89161      14540.16       24.407487      24.407487      24.407487    
     36500   393.11589     -2855.8346      43.85267      -2811.982       5.1947823      14535.556      24.40491       24.40491       24.40491     
     37000   407.64214     -2856.4928      45.473094     -2811.0197      145.21805      14532.762      24.403347      24.403347      24.403347    
     37500   407.60444     -2855.2403      45.468889     -2809.7714      31.305274      14537.336      24.405907      24.405907      24.405907    
     38000   401.56135     -2857.326       44.794773     -2812.5312      81.558855      14528.8        24.401129      24.401129      24.401129    
     38500   403.03487     -2858.3441      44.959146     -2813.385       330.77881      14520.257      24.396345      24.396345      24.396345    
     39000   390.57647     -2856.2757      43.569394     -2812.7063      775.91532      14516.286      24.394121      24.394121      24.394121    
     39500   400.07549     -2854.4024      44.629023     -2809.7733      1159.1537      14512.164      24.391811      24.391811      24.391811    
     40000   397.36196     -2853.8942      44.326325     -2809.5679      1697.6087      14503.593      24.387009      24.387009      24.387009    
     40500   383.94744     -2856.3974      42.829914     -2813.5675      2280.2247      14480.869      24.374266      24.374266      24.374266    
     41000   399.08467     -2858.1975      44.518495     -2813.679       2325.0152      14483.131      24.375535      24.375535      24.375535    
     41500   400.84184     -2855.4082      44.714511     -2810.6937      882.42026      14514.738      24.393254      24.393254      24.393254    
     42000   420.52523     -2857.058       46.910222     -2810.1478      504.92406      14522.703      24.397715      24.397715      24.397715    
     42500   418.536       -2858.1116      46.688321     -2811.4233      768.13959      14514.71       24.393238      24.393238      24.393238    
     43000   398.65437     -2858.5199      44.470494     -2814.0494      913.32957      14508.547      24.389785      24.389785      24.389785    
     43500   395.82456     -2857.1592      44.154825     -2813.0043      982.35065      14506.688      24.388743      24.388743      24.388743    
     44000   397.19784     -2856.9786      44.308017     -2812.6706      1415.6307      14500.147      24.385077      24.385077      24.385077    
     44500   414.70389     -2855.3343      46.260843     -2809.0734      1802.6632      14497.956      24.383849      24.383849      24.383849    
     45000   402.88        -2857.5386      44.94187      -2812.5967      2835.9048      14471.405      24.368955      24.368955      24.368955    
     45500   395.82173     -2857.1987      44.15451      -2813.0442      3384.4609      14459.831      24.362456      24.362456      24.362456    
     46000   422.51483     -2856.0125      47.132166     -2808.8803      3208.7528      14470.391      24.368385      24.368385      24.368385    
     46500   417.27507     -2857.1189      46.547662     -2810.5713      2844.6104      14476.77       24.371966      24.371966      24.371966    
     47000   409.71473     -2857.8467      45.704295     -2812.1424      2432.6086      14481.96       24.374878      24.374878      24.374878    
     47500   388.95285     -2858.0197      43.388276     -2814.6314      2026.7969      14484.13       24.376095      24.376095      24.376095    
     48000   388.22431     -2858.587       43.307006     -2815.28        1061.1638      14500.458      24.385252      24.385252      24.385252    
     48500   403.94281     -2856.2454      45.060429     -2811.185       433.28623      14523.385      24.398097      24.398097      24.398097    
     49000   404.21275     -2855.9111      45.09054      -2810.8206      225.18599      14529.35       24.401436      24.401436      24.401436    
     49500   378.1083      -2859.012       42.17855      -2816.8335      116.44521      14519.838      24.39611       24.39611       24.39611     
     50000   397.7361      -2856.9969      44.36806      -2812.6288     -125.27304      14535.43       24.40484       24.40484       24.40484     
Loop time of 617.916 on 8 procs for 50000 steps with 864 atoms

Performance: 6.991 ns/day, 3.433 hours/ns, 80.917 timesteps/s, 69.912 katom-step/s
93.8% CPU use with 1 MPI tasks x 8 OpenMP threads

MPI task timing breakdown:
Section |  min time  |  avg time  |  max time  |%varavg| %total
---------------------------------------------------------------
Pair    | 535.95     | 535.95     | 535.95     |   0.0 | 86.73
Neigh   | 0          | 0          | 0          |   0.0 |  0.00
Comm    | 0.91347    | 0.91347    | 0.91347    |   0.0 |  0.15
Output  | 0.00913    | 0.00913    | 0.00913    |   0.0 |  0.00
Modify  | 80.86      | 80.86      | 80.86      |   0.0 | 13.09
Other   |            | 0.1858     |            |       |  0.03

Nlocal:            864 ave         864 max         864 min
Histogram: 1 0 0 0 0 0 0 0 0 0
Nghost:           2692 ave        2692 max        2692 min
Histogram: 1 0 0 0 0 0 0 0 0 0
Neighs:          58159 ave       58159 max       58159 min
Histogram: 1 0 0 0 0 0 0 0 0 0
FullNghs:       116318 ave      116318 max      116318 min
Histogram: 1 0 0 0 0 0 0 0 0 0

Total # of neighbors = 116318
Ave neighs/atom = 134.62731
Neighbor list builds = 0
Dangerous builds = 0

=== FINAL RESULTS: FCC at 400 K ===
Atoms: 864 | PE/atom: -3.30651545905337 eV/atom
WARNING: Detected non-ASCII characters in input. Will try to continue by replacing with ASCII equivalents where known. (src/input.cpp:479)
Volume: 14535.4301659188 …³ | Area: 595.596210613751 ²
==========================================
FCC 400 864 -3.30651545905337 14535.4301659188 24.4048399014161 24.4048399014161 24.4048399014161 595.596210613751
Simulation complete!
Total wall time: 0:14:14
