LAMMPS (10 Sep 2025)
  using 8 OpenMP thread(s) per MPI task
Loaded 1 plugins from C:\Users\harsh\Downloads\LAMMPS 64-bit 10Sep2025\plugins
using multi-threaded neighbor list subroutines
Reading data file ...
  orthogonal box = (0 0 0) to (24.3 24.3 24.3)
  1 by 1 by 1 MPI processor grid
  reading atoms ...
  864 atoms
  read_data CPU = 0.008 seconds
=== STAGE 1: Energy Minimization ===
Switching to 'neigh_modify every 1 delay 0 check yes' setting during minimization
No /omp style for force computation currently active
Neighbor list info ...
  update: every = 1 steps, delay = 0 steps, check = yes
  max neighbors/atom: 4000, page size: 100000
  master list distance cutoff = 8
  ghost atom cutoff = 8
  binsize = 4, bins = 7 7 7
  2 neighbor lists, perpetual/occasional/extra = 2 0 0
  (1) pair meam, perpetual
      attributes: full, newton on, omp
      pair build: full/bin/atomonly/omp
      stencil: full/bin/3d
      bin: standard
  (2) pair meam, perpetual, half/full from (1)
      attributes: half, newton on, omp
      pair build: halffull/newton/omp
      stencil: none
      bin: none
Setting up cg style minimization ...
  Unit style    : metal
  Current step  : 0
Per MPI rank memory allocation (min/avg/max) = 20.51 | 20.51 | 20.51 Mbytes
   Step          Temp          PotEng         KinEng         TotEng         Press          Volume           Lx             Ly             Lz      
         0   0             -2903.0314      0             -2903.0314     -0.017393413    14348.907      24.3           24.3           24.3         
         1   0             -2903.0314      0             -2903.0314     -0.017393413    14348.907      24.3           24.3           24.3         
Loop time of 0.041479 on 8 procs for 1 steps with 864 atoms

113.0% CPU use with 1 MPI tasks x 8 OpenMP threads

Minimization stats:
  Stopping criterion = energy tolerance
  Energy initial, next-to-last, final = 
     -2903.03136038828  -2903.03136038828  -2903.03136038828
  Force two-norm initial, final = 2.9054316e-13 2.8416052e-13
  Force max component initial, final = 1.169111e-14 1.169111e-14
  Final line search alpha, max atom move = 1 1.169111e-14
  Iterations, force evaluations = 1 2

MPI task timing breakdown:
Section |  min time  |  avg time  |  max time  |%varavg| %total
---------------------------------------------------------------
Pair    | 0.040349   | 0.040349   | 0.040349   |   0.0 | 97.28
Neigh   | 0          | 0          | 0          |   0.0 |  0.00
Comm    | 9.2e-05    | 9.2e-05    | 9.2e-05    |   0.0 |  0.22
Output  | 0          | 0          | 0          |   0.0 |  0.00
Modify  | 0.000862   | 0.000862   | 0.000862   |   0.0 |  2.08
Other   |            | 0.000176   |            |       |  0.42

Nlocal:            864 ave         864 max         864 min
Histogram: 1 0 0 0 0 0 0 0 0 0
Nghost:           2565 ave        2565 max        2565 min
Histogram: 1 0 0 0 0 0 0 0 0 0
Neighs:          57888 ave       57888 max       57888 min
Histogram: 1 0 0 0 0 0 0 0 0 0
FullNghs:       115776 ave      115776 max      115776 min
Histogram: 1 0 0 0 0 0 0 0 0 0

Total # of neighbors = 115776
Ave neighs/atom = 134
Neighbor list builds = 0
Dangerous builds = 0
Minimized PE/atom: -3.3599900004494 eV/atom
=== STAGE 2: NPT Equilibration at 650 K ===
No /omp style for force computation currently active
Setting up Verlet run ...
  Unit style    : metal
  Current step  : 0
  Time step     : 0.002
Per MPI rank memory allocation (min/avg/max) = 19.38 | 19.38 | 19.38 Mbytes
   Step          Temp          PotEng         KinEng         TotEng         Press          Volume           Lx             Ly             Lz      
         0   650           -2903.0314      72.508478     -2830.5229      5397.4381      14348.907      24.3           24.3           24.3         
       500   589.28685     -2833.545       65.735835     -2767.8091     -4757.1221      14718.641      24.506948      24.506948      24.506948    
      1000   644.42211     -2828.5914      71.886256     -2756.7051      2545.7664      14587.947      24.434196      24.434196      24.434196    
      1500   624.35917     -2818.6939      69.648205     -2749.0457     -1477.8322      14690.592      24.491371      24.491371      24.491371    
      2000   651.38827     -2822.7443      72.663342     -2750.081       212.59877      14660.79       24.474798      24.474798      24.474798    
      2500   626.18353     -2825.9018      69.851715     -2756.0501      930.21571      14627.166      24.456074      24.456074      24.456074    
      3000   662.59734     -2829.7388      73.91373      -2755.8251     -1427.5194      14672.662      24.481403      24.481403      24.481403    
      3500   660.52152     -2824.2942      73.68217      -2750.6121      1845.3315      14619.907      24.452027      24.452027      24.452027    
      4000   641.88305     -2824.39        71.60302      -2752.7869     -2171.3964      14702.688      24.498091      24.498091      24.498091    
      4500   627.48975     -2827.9901      69.997426     -2757.9927      3408.6996      14572.841      24.425759      24.425759      24.425759    
      5000   647.98537     -2827.4876      72.283743     -2755.2039     -3527.9486      14724.247      24.51006       24.51006       24.51006     
      5500   653.47516     -2825.302       72.896138     -2752.4059      2730.3172      14593.171      24.437113      24.437113      24.437113    
      6000   629.1064      -2826.3066      70.177765     -2756.1289     -553.31952      14648.701      24.468069      24.468069      24.468069    
      6500   655.45446     -2827.4401      73.116931     -2754.3231     -705.83146      14663.153      24.476114      24.476114      24.476114    
      7000   681.64105     -2828.0227      76.038085     -2751.9846      1636.8715      14616.654      24.450213      24.450213      24.450213    
      7500   633.90977     -2825.2213      70.713589     -2754.5078     -1747.8971      14682.075      24.486637      24.486637      24.486637    
      8000   644.51773     -2827.7027      71.896923     -2755.8058      1955.4546      14600.482      24.441193      24.441193      24.441193    
      8500   647.69505     -2827.517       72.251357     -2755.2657     -2362.9782      14692.698      24.492541      24.492541      24.492541    
      9000   683.65732     -2822.6632      76.263003     -2746.4002      1592.4301      14622.322      24.453373      24.453373      24.453373    
      9500   659.11594     -2823.9828      73.525375     -2750.4574     -1428.8328      14685.006      24.488267      24.488267      24.488267    
     10000   637.22989     -2824.7449      71.083953     -2753.661       1030.8134      14624.453      24.454561      24.454561      24.454561    
     10500   628.66235     -2825.1827      70.128232     -2755.0544      407.75694      14633.08       24.459369      24.459369      24.459369    
     11000   653.48587     -2823.1862      72.897332     -2750.2889     -2975.4627      14719.887      24.50764       24.50764       24.50764     
     11500   647.41762     -2825.5431      72.22041      -2753.3227      4436.3562      14547.228      24.411441      24.411441      24.411441    
     12000   632.47747     -2827.6059      70.553814     -2757.0521     -4286.4712      14734.971      24.516008      24.516008      24.516008    
     12500   662.72534     -2827.6017      73.928009     -2753.6737      3887.1033      14563.251      24.4204        24.4204        24.4204      
     13000   668.89947     -2825.4104      74.616743     -2750.7936     -3318.2195      14720.855      24.508177      24.508177      24.508177    
     13500   661.55492     -2825.9493      73.797448     -2752.1519      1853.0606      14612.086      24.447666      24.447666      24.447666    
     14000   651.66101     -2829.5476      72.693766     -2756.8538     -508.27455      14655.991      24.472127      24.472127      24.472127    
     14500   663.08936     -2829.6177      73.968616     -2755.649       104.74901      14648.664      24.468049      24.468049      24.468049    
     15000   638.13664     -2824.1988      71.185102     -2753.0137      739.50701      14630.504      24.457934      24.457934      24.457934    
     15500   644.239       -2824.5569      71.86583      -2752.6911     -1461.8601      14678.903      24.484874      24.484874      24.484874    
     16000   644.69406     -2828.7427      71.916593     -2756.8261      1848.7896      14604.949      24.443685      24.443685      24.443685    
     16500   644.77405     -2827.0828      71.925516     -2755.1573     -2248.3128      14689.252      24.490627      24.490627      24.490627    
     17000   663.83997     -2827.2098      74.052348     -2753.1574      2391.5369      14587.196      24.433777      24.433777      24.433777    
     17500   687.49008     -2822.1741      76.690553     -2745.4835     -3244.2178      14739.064      24.518278      24.518278      24.518278    
     18000   666.73699     -2826.8558      74.375515     -2752.4803      3165.6554      14582.312      24.43105       24.43105       24.43105     
     18500   646.75621     -2827.4641      72.146628     -2755.3174     -1528.6553      14673.32       24.481769      24.481769      24.481769    
     19000   647.29113     -2824.9827      72.206299     -2752.7764     -324.04205      14654.116      24.471084      24.471084      24.471084    
     19500   677.97665     -2823.7886      75.629316     -2748.1593      663.45723      14641.265      24.463929      24.463929      24.463929    
     20000   666.41405     -2824.0433      74.33949      -2749.7038     -1218.5876      14681.219      24.486161      24.486161      24.486161    
Loop time of 241.534 on 8 procs for 20000 steps with 864 atoms

Performance: 14.309 ns/day, 1.677 hours/ns, 82.804 timesteps/s, 71.543 katom-step/s
94.2% CPU use with 1 MPI tasks x 8 OpenMP threads

MPI task timing breakdown:
Section |  min time  |  avg time  |  max time  |%varavg| %total
---------------------------------------------------------------
Pair    | 210.45     | 210.45     | 210.45     |   0.0 | 87.13
Neigh   | 0          | 0          | 0          |   0.0 |  0.00
Comm    | 0.34559    | 0.34559    | 0.34559    |   0.0 |  0.14
Output  | 0.003719   | 0.003719   | 0.003719   |   0.0 |  0.00
Modify  | 30.672     | 30.672     | 30.672     |   0.0 | 12.70
Other   |            | 0.06518    |            |       |  0.03

Nlocal:            864 ave         864 max         864 min
Histogram: 1 0 0 0 0 0 0 0 0 0
Nghost:           2565 ave        2565 max        2565 min
Histogram: 1 0 0 0 0 0 0 0 0 0
Neighs:          57888 ave       57888 max       57888 min
Histogram: 1 0 0 0 0 0 0 0 0 0
FullNghs:       115776 ave      115776 max      115776 min
Histogram: 1 0 0 0 0 0 0 0 0 0

Total # of neighbors = 115776
Ave neighs/atom = 134
Neighbor list builds = 0
Dangerous builds = 0
=== STAGE 3: NPT Production at 650 K ===
No /omp style for force computation currently active
Setting up Verlet run ...
  Unit style    : metal
  Current step  : 0
  Time step     : 0.001
Per MPI rank memory allocation (min/avg/max) = 19.38 | 19.38 | 19.38 Mbytes
   Step          Temp          PotEng         KinEng         TotEng         Press          Volume           Lx             Ly             Lz      
         0   666.41405     -2824.0433      74.33949      -2749.7038     -1218.5876      14681.219      24.486161      24.486161      24.486161    
       500   671.8255      -2827.6883      74.943146     -2752.7452      1070.3708      14624.133      24.454383      24.454383      24.454383    
      1000   642.52746     -2828.3961      71.674906     -2756.7212     -987.11412      14663.146      24.476109      24.476109      24.476109    
      1500   655.27071     -2826.4756      73.096434     -2753.3791      1725.9123      14609.225      24.446071      24.446071      24.446071    
      2000   671.11799     -2822.2701      74.864221     -2747.4058     -1964.5622      14700.141      24.496676      24.496676      24.496676    
      2500   639.21966     -2823.5015      71.305915     -2752.1956      1345.7095      14617.96       24.450942      24.450942      24.450942    
      3000   663.39628     -2828.4818      74.002853     -2754.4789     -437.11556      14656.357      24.472331      24.472331      24.472331    
      3500   618.56692     -2827.9998      69.002071     -2758.9977     -447.0988       14651.656      24.469715      24.469715      24.469715    
      4000   632.70081     -2822.4745      70.578727     -2751.8957      1868.477       14605.11       24.443775      24.443775      24.443775    
      4500   615.28272     -2824.3583      68.635714     -2755.7226     -2191.1069      14687.607      24.489712      24.489712      24.489712    
      5000   616.59997     -2825.8165      68.782655     -2757.0338      2067.5611      14590.191      24.435449      24.435449      24.435449    
      5500   660.6438      -2827.7585      73.695811     -2754.0627     -2479.6072      14701.088      24.497202      24.497202      24.497202    
      6000   681.43951     -2826.1589      76.015603     -2750.1433      1959.3329      14607.697      24.445218      24.445218      24.445218    
      6500   668.53513     -2826.6058      74.5761       -2752.0297     -1054.4764      14670.052      24.479951      24.479951      24.479951    
      7000   650.51592     -2827.8861      72.56603      -2755.3201      1029.4186      14628.226      24.456664      24.456664      24.456664    
      7500   667.51475     -2823.8221      74.462275     -2749.3598     -700.64616      14666.494      24.477972      24.477972      24.477972    
      8000   636.52385     -2821.6415      71.005194     -2750.6363     -126.43346      14662.644      24.47583       24.47583       24.47583     
      8500   649.4023      -2826.8026      72.441804     -2754.3608      700.82223      14629.927      24.457612      24.457612      24.457612    
      9000   658.71671     -2828.32        73.48084      -2754.8392     -972.50999      14668.381      24.479022      24.479022      24.479022    
      9500   669.11529     -2824.5899      74.640818     -2749.9491      498.1771       14636.234      24.461126      24.461126      24.461126    
     10000   660.25585     -2826.0519      73.652534     -2752.3994     -1555.3119      14680.209      24.4856        24.4856        24.4856      
     10500   637.25256     -2824.5087      71.086482     -2753.4222      2384.8942      14602.902      24.442543      24.442543      24.442543    
     11000   675.88945     -2823.4333      75.396486     -2748.0368     -1949.5376      14699.453      24.496294      24.496294      24.496294    
     11500   676.1336      -2825.509       75.42372      -2750.0853      1614.5158      14623.941      24.454276      24.454276      24.454276    
     12000   652.35992     -2824.4342      72.771731     -2751.6625     -1128.8998      14675.506      24.482985      24.482985      24.482985    
     12500   625.04517     -2829.7887      69.72473      -2760.064      -331.62649      14645.376      24.466218      24.466218      24.466218    
     13000   653.01588     -2824.4592      72.844904     -2751.6143      1909.4059      14610.378      24.446714      24.446714      24.446714    
     13500   665.11791     -2823.2164      74.194904     -2749.0215     -2198.0086      14709.085      24.501644      24.501644      24.501644    
     14000   662.75971     -2827.9783      73.931844     -2754.0465      1831.949       14606.416      24.444503      24.444503      24.444503    
     14500   640.09415     -2825.5728      71.403466     -2754.1693     -1106.3669      14679.644      24.485286      24.485286      24.485286    
     15000   628.93117     -2826.8602      70.158219     -2756.702       1358.5972      14614.932      24.449253      24.449253      24.449253    
     15500   658.22875     -2826.3983      73.426408     -2752.9719     -764.34603      14667.868      24.478737      24.478737      24.478737    
     16000   650.1726      -2825.7808      72.527732     -2753.253      -258.75503      14655.602      24.471911      24.471911      24.471911    
     16500   618.83144     -2826.5425      69.031579     -2757.511       851.98008      14622.299      24.45336       24.45336       24.45336     
     17000   641.75941     -2825.5636      71.589228     -2753.9743     -1404.6947      14679.246      24.485064      24.485064      24.485064    
     17500   679.89139     -2826.6215      75.842908     -2750.7786      2331.5496      14601.763      24.441907      24.441907      24.441907    
     18000   678.03963     -2820.7539      75.636342     -2745.1175     -2698.6759      14725.688      24.510859      24.510859      24.510859    
     18500   667.53389     -2829.6355      74.464411     -2755.1711      2842.3639      14591.389      24.436118      24.436118      24.436118    
     19000   635.98712     -2827.5219      70.945321     -2756.5766     -2433.2816      14695.271      24.493971      24.493971      24.493971    
     19500   662.76205     -2826.7585      73.932105     -2752.8264      1909.6753      14600.075      24.440966      24.440966      24.440966    
     20000   646.72336     -2826.1554      72.142964     -2754.0125     -2023.9189      14679.564      24.485241      24.485241      24.485241    
     20500   652.46709     -2823.8959      72.783686     -2751.1122      340.6479       14639.31       24.462839      24.462839      24.462839    
     21000   639.35648     -2823.3088      71.321178     -2751.9876      944.32702      14631.98       24.458756      24.458756      24.458756    
     21500   669.79056     -2829.9577      74.716145     -2755.2416     -2022.0866      14693.069      24.492747      24.492747      24.492747    
     22000   641.64347     -2825.8662      71.576295     -2754.2899      5078.6421      14541.51       24.408242      24.408242      24.408242    
     22500   657.45924     -2823.7685      73.340568     -2750.428      -5339.1929      14767.228      24.533885      24.533885      24.533885    
     23000   692.99675     -2826.0182      77.304831     -2748.7133      3230.1281      14577.789      24.428524      24.428524      24.428524    
     23500   641.08635     -2824.564       71.514147     -2753.0499     -1980.7691      14692.704      24.492545      24.492545      24.492545    
     24000   643.26488     -2826.9791      71.757165     -2755.2219      630.61585      14630.674      24.458028      24.458028      24.458028    
     24500   639.77901     -2823.6985      71.368312     -2752.3302      281.2506       14643.628      24.465244      24.465244      24.465244    
     25000   653.32276     -2821.7474      72.879138     -2748.8683     -1218.4802      14684.764      24.488132      24.488132      24.488132    
     25500   658.84527     -2825.4521      73.495181     -2751.9569      1739.0418      14617.029      24.450422      24.450422      24.450422    
     26000   621.99016     -2825.8248      69.383938     -2756.4409     -1250.8842      14675.512      24.482988      24.482988      24.482988    
     26500   672.41959     -2826.9783      75.009417     -2751.9689      2102.7783      14607.071      24.444869      24.444869      24.444869    
     27000   668.29627     -2822.8308      74.549455     -2748.2813     -2078.8799      14702.246      24.497846      24.497846      24.497846    
     27500   660.66506     -2825.3777      73.698182     -2751.6795      1574.2055      14617.349      24.450601      24.450601      24.450601    
     28000   631.46142     -2826.4402      70.440472     -2755.9997     -279.96987      14648.335      24.467866      24.467866      24.467866    
     28500   618.17058     -2822.3895      68.957858     -2753.4317     -1143.4872      14671.884      24.480971      24.480971      24.480971    
     29000   686.05412     -2824.5146      76.530369     -2747.9842      2143.9012      14606.981      24.444819      24.444819      24.444819    
     29500   684.53666     -2825.8384      76.361095     -2749.4773     -3064.8912      14720.739      24.508113      24.508113      24.508113    
     30000   643.14925     -2825.4358      71.744267     -2753.6916      2772.9563      14589.846      24.435257      24.435257      24.435257    
     30500   650.97979     -2827.6804      72.617776     -2755.0626     -2360.9997      14697.84       24.495398      24.495398      24.495398    
     31000   663.57361     -2824.8951      74.022635     -2750.8725      1427.425       14623.053      24.453781      24.453781      24.453781    
     31500   635.67094     -2821.0871      70.91005      -2750.177      -908.78684      14681.374      24.486247      24.486247      24.486247    
     32000   642.43605     -2823.6211      71.664709     -2751.9564      697.62021      14641.101      24.463837      24.463837      24.463837    
     32500   641.17592     -2824.4715      71.524139     -2752.9473     -20.316407      14654.648      24.47138       24.47138       24.47138     
     33000   626.70792     -2826.4186      69.910211     -2756.5084     -746.44949      14656.581      24.472456      24.472456      24.472456    
     33500   632.09166     -2827.5683      70.510776     -2757.0575      2081.8616      14596.946      24.43922       24.43922       24.43922     
     34000   670.57371     -2825.3774      74.803506     -2750.5739     -2681.4621      14713.62       24.504161      24.504161      24.504161    
     34500   656.22476     -2826.6945      73.20286      -2753.4916      3655.9824      14572.074      24.425331      24.425331      24.425331    
     35000   610.8817      -2827.1637      68.144773     -2759.0189     -3987.0625      14721.49       24.50853       24.50853       24.50853     
     35500   668.80106     -2827.347       74.605764     -2752.7412      3145.4948      14579.377      24.429411      24.429411      24.429411    
     36000   658.92155     -2825.9617      73.503691     -2752.458      -1341.5045      14678.105      24.48443       24.48443       24.48443     
     36500   638.29706     -2824.5488      71.202998     -2753.3458      740.98931      14636.685      24.461377      24.461377      24.461377    
     37000   619.14474     -2824.9873      69.066528     -2755.9208      1163.4365      14629.207      24.457211      24.457211      24.457211    
     37500   695.58665     -2823.5578      77.593737     -2745.9641     -897.71752      14676.153      24.483344      24.483344      24.483344    
     38000   667.93674     -2823.8955      74.509348     -2749.3861      788.94524      14635.354      24.460636      24.460636      24.460636    
     38500   664.53755     -2826.8562      74.130164     -2752.7261     -1515.3773      14686.584      24.489144      24.489144      24.489144    
     39000   635.10842     -2826.3292      70.847301     -2755.4819      2589.0899      14591.928      24.436419      24.436419      24.436419    
     39500   618.01007     -2827.6318      68.939954     -2758.6919     -1924.6194      14678.291      24.484533      24.484533      24.484533    
     40000   653.90712     -2826.85        72.944324     -2753.9056      1367.6508      14627.938      24.456504      24.456504      24.456504    
     40500   664.12146     -2825.7666      74.083748     -2751.6828      998.26378      14637.575      24.461873      24.461873      24.461873    
     41000   646.30493     -2825.745       72.096288     -2753.6488     -2132.8896      14698.499      24.495765      24.495765      24.495765    
     41500   612.97177     -2829.8727      68.377923     -2761.4948      2145.4997      14587.526      24.433961      24.433961      24.433961    
     42000   638.45194     -2825.0836      71.220275     -2753.8634     -1647.8776      14679.989      24.485478      24.485478      24.485478    
     42500   667.32067     -2825.161       74.440625     -2750.7203      774.28036      14628.842      24.457007      24.457007      24.457007    
     43000   648.47091     -2826.1853      72.337906     -2753.8474     -1373.5797      14673.746      24.482006      24.482006      24.482006    
     43500   650.1091      -2828.4708      72.520649     -2755.9501      1038.9767      14614.458      24.448989      24.448989      24.448989    
     44000   645.99267     -2824.6691      72.061454     -2752.6077     -494.3339       14660.312      24.474532      24.474532      24.474532    
     44500   642.4797      -2822.1382      71.669577     -2750.4686     -333.19945      14660.239      24.474492      24.474492      24.474492    
     45000   644.84889     -2826.3149      71.933865     -2754.381       876.34887      14631.411      24.458439      24.458439      24.458439    
     45500   621.96355     -2826.7398      69.38097      -2757.3588     -2364.7631      14695.216      24.49394       24.49394       24.49394     
     46000   630.80971     -2823.0152      70.367773     -2752.6474      4599.0933      14552.417      24.414343      24.414343      24.414343    
     46500   648.30575     -2824.3523      72.319482     -2752.0328     -5096.0668      14764.447      24.532345      24.532345      24.532345    
     47000   637.4852      -2827.6201      71.112433     -2756.5076      3791.8549      14561.166      24.419235      24.419235      24.419235    
     47500   646.04481     -2825.844       72.06727      -2753.7768     -2100.8989      14693.44       24.492954      24.492954      24.492954    
     48000   650.29208     -2824.2178      72.54106      -2751.6768      1284.4932      14627.885      24.456474      24.456474      24.456474    
     48500   652.50651     -2827.2305      72.788083     -2754.4424     -158.88039      14647.927      24.467639      24.467639      24.467639    
     49000   623.08574     -2828.3802      69.506152     -2758.874      -1354.0441      14665.907      24.477646      24.477646      24.477646    
     49500   661.42743     -2825.6267      73.783225     -2751.8435      1888.3014      14616.354      24.450046      24.450046      24.450046    
     50000   668.51175     -2826.405       74.573492     -2751.8315     -2217.1951      14702.665      24.498078      24.498078      24.498078    
Loop time of 612.753 on 8 procs for 50000 steps with 864 atoms

Performance: 7.050 ns/day, 3.404 hours/ns, 81.599 timesteps/s, 70.501 katom-step/s
94.1% CPU use with 1 MPI tasks x 8 OpenMP threads

MPI task timing breakdown:
Section |  min time  |  avg time  |  max time  |%varavg| %total
---------------------------------------------------------------
Pair    | 534.95     | 534.95     | 534.95     |   0.0 | 87.30
Neigh   | 0          | 0          | 0          |   0.0 |  0.00
Comm    | 0.91349    | 0.91349    | 0.91349    |   0.0 |  0.15
Output  | 0.008786   | 0.008786   | 0.008786   |   0.0 |  0.00
Modify  | 76.71      | 76.71      | 76.71      |   0.0 | 12.52
Other   |            | 0.1746     |            |       |  0.03

Nlocal:            864 ave         864 max         864 min
Histogram: 1 0 0 0 0 0 0 0 0 0
Nghost:           2755 ave        2755 max        2755 min
Histogram: 1 0 0 0 0 0 0 0 0 0
Neighs:          57512 ave       57512 max       57512 min
Histogram: 1 0 0 0 0 0 0 0 0 0
FullNghs:       115024 ave      115024 max      115024 min
Histogram: 1 0 0 0 0 0 0 0 0 0

Total # of neighbors = 115024
Ave neighs/atom = 133.12963
Neighbor list builds = 0
Dangerous builds = 0

=== FINAL RESULTS: FCC at 650 K ===
Atoms: 864 | PE/atom: -3.27086330094494 eV/atom
WARNING: Detected non-ASCII characters in input. Will try to continue by replacing with ASCII equivalents where known. (src/input.cpp:479)
Volume: 14702.6645856941 …³ | Area: 600.155835373378 ²
==========================================
FCC 650 864 -3.27086330094494 14702.6645856941 24.4980781975521 24.4980781975521 24.4980781975521 600.155835373378
Simulation complete!
Total wall time: 0:14:14
