LAMMPS (10 Sep 2025)
  using 8 OpenMP thread(s) per MPI task
Loaded 1 plugins from C:\Users\harsh\Downloads\LAMMPS 64-bit 10Sep2025\plugins
using multi-threaded neighbor list subroutines
Reading data file ...
  orthogonal box = (0 0 0) to (17.182695 29.7613 28.059223)
  1 by 1 by 1 MPI processor grid
  reading atoms ...
  432 atoms
  read_data CPU = 0.004 seconds
=== STAGE 1: Energy Minimization ===
Switching to 'neigh_modify every 1 delay 0 check yes' setting during minimization
No /omp style for force computation currently active
Neighbor list info ...
  update: every = 1 steps, delay = 0 steps, check = yes
  max neighbors/atom: 4000, page size: 100000
  master list distance cutoff = 8
  ghost atom cutoff = 8
  binsize = 4, bins = 5 8 8
  2 neighbor lists, perpetual/occasional/extra = 2 0 0
  (1) pair meam, perpetual
      attributes: full, newton on, omp
      pair build: full/bin/atomonly/omp
      stencil: full/bin/3d
      bin: standard
  (2) pair meam, perpetual, half/full from (1)
      attributes: half, newton on, omp
      pair build: halffull/newton/omp
      stencil: none
      bin: none
Setting up cg style minimization ...
  Unit style    : metal
  Current step  : 0
Per MPI rank memory allocation (min/avg/max) = 19.26 | 19.26 | 19.26 Mbytes
   Step          Temp          PotEng         KinEng         TotEng         Press          Volume           Lx             Ly             Lz      
         0   0             -1048.6839      0             -1048.6839     -25039.195      14348.907      17.182695      29.7613        28.059223    
        21   0             -1109.9319      0             -1109.9319     -65756.088      14348.907      17.182695      29.7613        28.059223    
Loop time of 0.069736 on 8 procs for 21 steps with 432 atoms

89.6% CPU use with 1 MPI tasks x 8 OpenMP threads

Minimization stats:
  Stopping criterion = energy tolerance
  Energy initial, next-to-last, final = 
     -1048.68392303789  -1109.93094075418  -1109.93189068993
  Force two-norm initial, final = 9.1454401 0.039864912
  Force max component initial, final = 0.62226839 0.0044484776
  Final line search alpha, max atom move = 1 0.0044484776
  Iterations, force evaluations = 21 27

MPI task timing breakdown:
Section |  min time  |  avg time  |  max time  |%varavg| %total
---------------------------------------------------------------
Pair    | 0.063729   | 0.063729   | 0.063729   |   0.0 | 91.39
Neigh   | 0          | 0          | 0          |   0.0 |  0.00
Comm    | 0.000318   | 0.000318   | 0.000318   |   0.0 |  0.46
Output  | 0          | 0          | 0          |   0.0 |  0.00
Modify  | 0.005153   | 0.005153   | 0.005153   |   0.0 |  7.39
Other   |            | 0.000536   |            |       |  0.77

Nlocal:            432 ave         432 max         432 min
Histogram: 1 0 0 0 0 0 0 0 0 0
Nghost:           1599 ave        1599 max        1599 min
Histogram: 1 0 0 0 0 0 0 0 0 0
Neighs:          15336 ave       15336 max       15336 min
Histogram: 1 0 0 0 0 0 0 0 0 0
FullNghs:        30672 ave       30672 max       30672 min
Histogram: 1 0 0 0 0 0 0 0 0 0

Total # of neighbors = 30672
Ave neighs/atom = 71
Neighbor list builds = 0
Dangerous builds = 0
Minimized PE/atom: -2.56928678400447 eV/atom
=== STAGE 2: NPT Equilibration at 650 K ===
No /omp style for force computation currently active
Setting up Verlet run ...
  Unit style    : metal
  Current step  : 0
  Time step     : 0.002
Per MPI rank memory allocation (min/avg/max) = 18.14 | 18.14 | 18.14 Mbytes
   Step          Temp          PotEng         KinEng         TotEng         Press          Volume           Lx             Ly             Lz      
         0   650           -1109.9319      36.21223      -1073.7197     -63060.487      14348.907      17.182695      29.7613        28.059223    
       500   775.35945     -1344.7804      43.196145     -1301.5843     -3922.6029      9200.7705      14.816981      25.663765      24.196029    
      1000   651.87204     -1366.3234      36.316523     -1330.0069     -2439.0075      8621.1106      14.499045      25.113083      23.676842    
      1500   617.92656     -1369.7538      34.425382     -1335.3284      1298.8134      8391.1587      14.36897       24.887787      23.46443     
      2000   627.38075     -1368.9627      34.952086     -1334.0106      1272.3227      8541.5691      14.454316      25.03561       23.6038      
      2500   696.7272      -1372.5566      38.815454     -1333.7411     -4.9273068      8388.4879      14.367446      24.885146      23.461941    
      3000   661.46251     -1372.6607      36.850819     -1335.8099      1969.8325      8414.7552      14.382427      24.911094      23.486404    
      3500   628.50683     -1373.7108      35.014821     -1338.6959      438.36612      8382.4205      14.363981      24.879145      23.456282    
      4000   656.60519     -1375.113       36.580212     -1338.5328     -4719.8363      8383.5053      14.3646        24.880218      23.457294    
      4500   655.19113     -1372.9073      36.501433     -1336.4059     -1996.6266      8364.0922      14.353504      24.860998      23.439174    
      5000   664.61158     -1375.3456      37.026257     -1338.3194      2502.6758      8190.2109      14.253342      24.687512      23.27561     
      5500   644.21817     -1375.9094      35.890118     -1340.0193     -2297.2182      8278.9407      14.304629      24.776344      23.359361    
      6000   646.89742     -1379.078       36.039381     -1343.0386     -1949.3758      8228.6404      14.2756        24.726064      23.311957    
      6500   710.69631     -1379.5072      39.593689     -1339.9135      4062.9714      8119.7549      14.212353      24.616517      23.208675    
      7000   659.50013     -1374.5057      36.741492     -1337.7642     -679.45462      8163.4416      14.237796      24.660586      23.250223    
      7500   677.51152     -1373.8397      37.744927     -1336.0948      183.83979      8236.5411      14.280167      24.733975      23.319415    
      8000   662.83141     -1377.6696      36.927082     -1340.7425      1108.9364      8161.1433      14.23646       24.658272      23.248041    
      8500   648.47715     -1377.414       36.12739      -1341.2867      4428.8731      8051.6561      14.172509      24.547506      23.14361     
      9000   672.81814     -1377.1702      37.483454     -1339.6868      769.87087      8097.6575      14.199448      24.594166      23.187602    
      9500   630.06106     -1377.5143      35.101409     -1342.4129     -2252.7294      8155.5779      14.233223      24.652665      23.242756    
     10000   577.02984     -1376.9301      32.14698      -1344.7831      1128.0225      8113.878       14.208923      24.610577      23.203074    
     10500   643.20637     -1378.6296      35.833749     -1342.7958      1267.3303      8116.498       14.210452      24.613225      23.205571    
     11000   697.2347      -1380.8607      38.843728     -1342.0169      3195.019       8031.1465      14.160465      24.526645      23.123943    
     11500   633.74542     -1382.5932      35.306669     -1347.2865      629.1585       8026.3008      14.157617      24.521711      23.119291    
     12000   652.72675     -1378.8665      36.36414      -1342.5023     -2830.3453      8112.1013      14.207886      24.60878       23.20138     
     12500   621.87197     -1376.2298      34.645185     -1341.5847     -4156.004       8135.4854      14.221525      24.632403      23.223653    
     13000   612.23967     -1376.2833      34.108559     -1342.1747     -2816.1771      8080.5843      14.189462      24.576869      23.171294    
     13500   607.5589      -1380.0176      33.847788     -1346.1698      1354.3278      8009.1066      14.1475        24.504188      23.10277     
     14000   635.50473     -1379.234       35.404682     -1343.8293     -188.59137      8048.5015      14.170658      24.544299      23.140587    
     14500   628.01557     -1378.3539      34.987452     -1343.3664      30.917648      8032.0903      14.16102       24.527606      23.124848    
     15000   632.31003     -1375.4107      35.226702     -1340.184      -179.91798      8124.9651      14.215392      24.621781      23.213638    
     15500   651.75951     -1377.3937      36.310254     -1341.0834     -568.18191      8046.1551      14.169281      24.541914      23.138338    
     16000   652.82538     -1380.1943      36.369635     -1343.8247     -43.739706      7997.8042      14.140842      24.492656      23.091898    
     16500   616.33348     -1381.3255      34.33663      -1346.9889     -2349.8704      7935.0754      14.103774      24.428454      23.031367    
     17000   615.50782     -1382.0458      34.290632     -1347.7552     -2704.3048      7938.8915      14.106035      24.432369      23.035059    
     17500   625.45158     -1378.9942      34.84461      -1344.1496      542.47427      7921.7518      14.095876      24.414774      23.01847     
     18000   657.19974     -1379.1245      36.613335     -1342.5111      979.82642      7880.7496      14.071515      24.372578      22.978687    
     18500   671.14517     -1376.3857      37.390251     -1338.9955      374.19485      7867.2978      14.063504      24.358703      22.965605    
     19000   658.20184     -1379.5485      36.669163     -1342.8794      4975.159       7814.9325      14.032232      24.304538      22.914538    
     19500   649.14892     -1379.1972      36.164815     -1343.0323     -54.794574      7894.8252      14.079887      24.38708       22.992359    
     20000   650.27993     -1381.6633      36.227825     -1345.4355     -284.75795      7887.1313      14.075312      24.379155      22.984888    
Loop time of 224.361 on 8 procs for 20000 steps with 432 atoms

Performance: 15.404 ns/day, 1.558 hours/ns, 89.142 timesteps/s, 38.509 katom-step/s
83.7% CPU use with 1 MPI tasks x 8 OpenMP threads

MPI task timing breakdown:
Section |  min time  |  avg time  |  max time  |%varavg| %total
---------------------------------------------------------------
Pair    | 176.86     | 176.86     | 176.86     |   0.0 | 78.83
Neigh   | 0.24231    | 0.24231    | 0.24231    |   0.0 |  0.11
Comm    | 0.53654    | 0.53654    | 0.53654    |   0.0 |  0.24
Output  | 0.006666   | 0.006666   | 0.006666   |   0.0 |  0.00
Modify  | 46.548     | 46.548     | 46.548     |   0.0 | 20.75
Other   |            | 0.1661     |            |       |  0.07

Nlocal:            432 ave         432 max         432 min
Histogram: 1 0 0 0 0 0 0 0 0 0
Nghost:           2102 ave        2102 max        2102 min
Histogram: 1 0 0 0 0 0 0 0 0 0
Neighs:          25108 ave       25108 max       25108 min
Histogram: 1 0 0 0 0 0 0 0 0 0
FullNghs:        50216 ave       50216 max       50216 min
Histogram: 1 0 0 0 0 0 0 0 0 0

Total # of neighbors = 50216
Ave neighs/atom = 116.24074
Neighbor list builds = 191
Dangerous builds = 0
=== STAGE 3: NPT Production at 650 K ===
No /omp style for force computation currently active
Setting up Verlet run ...
  Unit style    : metal
  Current step  : 0
  Time step     : 0.001
Per MPI rank memory allocation (min/avg/max) = 18.37 | 18.37 | 18.37 Mbytes
   Step          Temp          PotEng         KinEng         TotEng         Press          Volume           Lx             Ly             Lz      
         0   650.27993     -1381.6633      36.227825     -1345.4355     -284.75795      7887.1313      14.075312      24.379155      22.984888    
       500   636.39137     -1382.7005      35.454078     -1347.2464      1104.4794      7858.2112      14.058087      24.349321      22.95676     
      1000   658.86159     -1379.1735      36.705919     -1342.4676      4876.7791      7763.7961      14.001558      24.251411      22.864449    
      1500   677.4126      -1379.3847      37.739416     -1341.6453      2537.2634      7876.7652      14.069143      24.36847       22.974814    
      2000   638.83883     -1381.2165      35.590428     -1345.6261     -1789.2297      7820.6792      14.03567       24.310494      22.920154    
      2500   651.95595     -1379.9278      36.321198     -1343.6066     -310.34148      7914.2302      14.091414      24.407044      23.011182    
      3000   675.38955     -1380.4933      37.62671      -1342.8666     -1109.4575      7983.8723      14.132626      24.478426      23.078481    
      3500   648.63031     -1385.3661      36.135923     -1349.2301      437.90824      7874.2232      14.067629      24.365848      22.972342    
      4000   610.85563     -1377.7128      34.031453     -1343.6813      463.11292      7885.2456      14.07419       24.377212      22.983056    
      4500   626.05621     -1376.8892      34.878294     -1342.0109     -142.16129      7922.112       14.09609       24.415144      23.018818    
      5000   639.38244     -1379.4557      35.620714     -1343.835      -1546.0577      7958.9077      14.11788       24.452886      23.054402    
      5500   660.67489     -1380.5953      36.80694      -1343.7884      1237.32        7910.2248      14.089036      24.402926      23.007299    
      6000   660.19976     -1379.9734      36.78047      -1343.193       2297.8073      7780.1294      14.01137       24.268405      22.880472    
      6500   686.73436     -1380.9994      38.258742     -1342.7407      7.6292262      7790.0049      14.017296      24.278669      22.890149    
      7000   642.78572     -1382.9711      35.810314     -1347.1608     -1981.7276      7771.2454      14.006035      24.259164      22.87176     
      7500   662.82858     -1381.4915      36.926924     -1344.5646      2041.144       7770.7518      14.005739      24.258651      22.871275    
      8000   613.91104     -1384.2634      34.201673     -1350.0617      1960.5587      7808.7291      14.028518      24.298106      22.908474    
      8500   680.29118     -1378.1573      37.899785     -1340.2576      2917.9531      7814.1357      14.031755      24.303712      22.91376     
      9000   705.66163     -1381.5415      39.313201     -1342.2283      1393.1783      7733.9308      13.983582      24.220274      22.835094    
      9500   636.01616     -1381.431       35.433174     -1345.9979     -727.50293      7748.3792      13.992284      24.235347      22.849305    
     10000   666.57224     -1383.0645      37.135488     -1345.929      -2536.0029      7854.9629      14.05615       24.345966      22.953597    
     10500   615.76519     -1381.6681      34.30497      -1347.3631     -4484.5937      7864.0905      14.061592      24.355392      22.962484    
     11000   646.36285     -1383.8458      36.0096       -1347.8362      3079.0353      7714.3526      13.971772      24.199819      22.815809    
     11500   672.7205      -1380.7544      37.478014     -1343.2764      971.06724      7656.1964      13.936574      24.138854      22.75833     
     12000   658.23641     -1382.3921      36.671089     -1345.721      -1173.8883      7685.8913      13.954569      24.170022      22.787715    
     12500   649.74076     -1383.0377      36.197787     -1346.8399      46.748125      7679.7095      13.950826      24.16354       22.781604    
     13000   645.02532     -1384.2902      35.935084     -1348.3551      1472.6788      7663.298       13.940882      24.146315      22.765364    
     13500   628.57441     -1380.9493      35.018586     -1345.9307     -1496.8708      7726.7152      13.979232      24.21274       22.82799     
     14000   629.65035     -1379.5906      35.078528     -1344.5121      2921.0636      7603.6915      13.904643      24.083547      22.706186    
     14500   643.53213     -1382.1609      35.851897     -1346.309       2999.2337      7606.3816      13.906282      24.086387      22.708864    
     15000   651.5222      -1382.1933      36.297033     -1345.8963      328.86029      7677.5292      13.949506      24.161253      22.779448    
     15500   624.63768     -1378.1502      34.799266     -1343.3509     -5759.7119      7739.1377      13.986719      24.225708      22.840217    
     16000   683.2264      -1383.1005      38.06331      -1345.0372     -1339.1801      7646.8542      13.930903      24.129032      22.749069    
     16500   644.82518     -1380.19        35.923934     -1344.2661      1903.1177      7589.5134      13.895995      24.068569      22.692065    
     17000   676.57772     -1385.7304      37.692904     -1348.0375      1242.6573      7515.8248      13.850875      23.99042       22.618385    
     17500   690.26649     -1381.8996      38.455521     -1343.444       2398.6521      7449.9474      13.810288      23.920121      22.552106    
     18000   671.25444     -1380.6175      37.396338     -1343.2212     -2537.881       7604.4826      13.905125      24.084383      22.706974    
     18500   627.01692     -1381.5986      34.931817     -1346.6668     -5168.0626      7633.3546      13.922701      24.114825      22.735675    
     19000   707.5462      -1379.5968      39.418193     -1340.1786      1942.4582      7572.7563      13.88576       24.050842      22.675352    
     19500   618.86417     -1380.4629      34.477618     -1345.9853     -3568.2381      7624.3067      13.917197      24.105293      22.726688    
     20000   670.1118      -1379.7304      37.332681     -1342.3977      930.60788      7602.76        13.904075      24.082564      22.705259    
     20500   666.59658     -1376.944       37.136844     -1339.8072     -2653.7768      7670.0364      13.944967      24.153391      22.772035    
     21000   610.12615     -1379.9734      33.990813     -1345.9825     -1182.5093      7593.1524      13.898215      24.072415      22.695691    
     21500   661.10352     -1381.9645      36.830819     -1345.1337     -3116.3923      7595.5934      13.899705      24.074995      22.698123    
     22000   675.03002     -1381.8278      37.60668      -1344.2211     -3368.3969      7651.457       13.933698      24.133872      22.753633    
     22500   609.6407      -1381.4893      33.963767     -1347.5255     -3036.6999      7594.2202      13.898867      24.073544      22.696755    
     23000   669.82538     -1380.7188      37.316724     -1343.402      -1152.6156      7549.9341      13.871797      24.026657      22.65255     
     23500   655.65729     -1381.6839      36.527404     -1345.1565     -469.4014       7478.8441      13.828121      23.951008      22.581227    
     24000   657.8097      -1379.804       36.647317     -1343.1567     -1702.3059      7480.9072      13.829392      23.95321       22.583303    
     24500   644.08379     -1380.1852      35.882631     -1344.3026      3547.6021      7509.4909      13.846983      23.983679      22.612029    
     25000   695.83137     -1384.5006      38.765547     -1345.735       1038.7398      7461.2493      13.817268      23.93221       22.563504    
     25500   607.29786     -1383.0501      33.833245     -1349.2168      3063.8252      7454.1692      13.812896      23.924638      22.556365    
     26000   643.80218     -1378.4597      35.866942     -1342.5928     -5354.1281      7611.0504      13.909127      24.091314      22.713509    
     26500   616.75318     -1377.6313      34.360012     -1343.2713      1276.9215      7566.72        13.88207       24.04445       22.669325    
     27000   624.03425     -1381.5433      34.765649     -1346.7777      1581.9411      7523.1507      13.855374      23.998212      22.625731    
     27500   624.08469     -1379.9862      34.768459     -1345.2177     -4180.9832      7613.1135      13.910384      24.093491      22.715561    
     28000   621.82864     -1378.5433      34.642772     -1343.9005      230.786        7511.2642      13.848073      23.985566      22.613809    
     28500   634.91266     -1380.4914      35.371697     -1345.1197      2397.2437      7425.4446      13.795131      23.893867      22.527354    
     29000   615.24887     -1380.2805      34.276205     -1346.0043      451.72025      7543.5986      13.867916      24.019935      22.646211    
     29500   602.30469     -1379.8403      33.555071     -1346.2852      1341.5794      7495.1282      13.83815       23.968378      22.597604    
     30000   653.88142     -1379.6622      36.428468     -1343.2337     -262.86798      7537.2046      13.863996      24.013146      22.639811    
     30500   680.84949     -1379.2065      37.93089      -1341.2756     -545.79236      7549.5863      13.871584      24.026288      22.652202    
     31000   664.3907      -1381.7397      37.013952     -1344.7258      1124.475       7487.7765      13.833624      23.960539      22.590213    
     31500   620.77424     -1382.5991      34.58403      -1348.0151     -1302.7422      7552.4878      13.873361      24.029366      22.655103    
     32000   605.76233     -1380.9582      33.747699     -1347.2105     -1224.6757      7576.1484      13.887833      24.054433      22.678737    
     32500   658.56143     -1379.743       36.689197     -1343.0538      559.30484      7527.6803      13.858154      24.003027      22.630271    
     33000   683.21211     -1380.5294      38.062514     -1342.4669      1713.5327      7481.4912      13.829752      23.953833      22.58389     
     33500   680.43219     -1379.0395      37.907641     -1341.1318      1739.0252      7499.2561      13.84069       23.972778      22.601752    
     34000   664.56573     -1378.2937      37.023703     -1341.27       -4119.3986      7536.4993      13.863564      24.012397      22.639105    
     34500   679.02202     -1383.3688      37.829079     -1345.5397      2199.1375      7438.6604      13.80331       23.908034      22.540711    
     35000   583.0752      -1382.03        32.483774     -1349.5462     -2082.5158      7492.1582      13.836322      23.965212      22.594619    
     35500   650.69458     -1379.6467      36.250925     -1343.3958      824.87229      7401.0445      13.780004      23.867667      22.502652    
     36000   613.13973     -1377.9992      34.158703     -1343.8405      875.10859      7511.7616      13.848379      23.986096      22.614308    
     36500   652.65718     -1381.4849      36.360264     -1345.1247      3247.6451      7415.8542      13.789189      23.883576      22.517652    
     37000   666.39817     -1381.1003      37.12579      -1343.9746     -1566.3314      7534.5724      13.862382      24.01035       22.637176    
     37500   636.11598     -1377.1168      35.438735     -1341.678       361.16976      7558.2652      13.876897      24.035491      22.660879    
     38000   631.90515     -1380.0321      35.204145     -1344.828      -1105.3532      7497.5711      13.839653      23.970982      22.600059    
     38500   638.86108     -1382.9285      35.591668     -1347.3368      3702.699       7427.1681      13.796198      23.895716      22.529097    
     39000   623.36403     -1383.5388      34.72831      -1348.8105     -1744.732       7486.21        13.832659      23.958868      22.588638    
     39500   631.92633     -1381.5163      35.205325     -1346.3109     -825.82399      7459.3835      13.816116      23.930215      22.561623    
     40000   646.33953     -1379.9705      36.008301     -1343.9622     -2544.3976      7578.8262      13.889469      24.057266      22.681408    
     40500   619.74967     -1378.9402      34.52695      -1344.4132      672.45803      7540.6806      13.866127      24.016837      22.643291    
     41000   682.7013      -1375.2766      38.034056     -1337.2425     -1364.553       7574.3086      13.886709      24.052486      22.676901    
     41500   662.43125     -1378.6472      36.904789     -1341.7424      189.07172      7474.9634      13.825729      23.946864      22.57732     
     42000   677.38931     -1380.0305      37.738119     -1342.2923      3886.3503      7355.3962      13.751615      23.818495      22.456293    
     42500   683.02865     -1378.2667      38.052293     -1340.2144     -325.14046      7413.3551      13.78764       23.880893      22.515122    
     43000   666.76223     -1377.7242      37.146072     -1340.5782      379.98147      7414.1423      13.788128      23.881738      22.515919    
     43500   685.44857     -1379.6086      38.187109     -1341.4215     -4780.1656      7476.9991      13.826983      23.949038      22.579369    
     44000   620.36894     -1379.3924      34.56145      -1344.831       3138.6973      7441.0193      13.804769      23.910561      22.543093    
     44500   635.79039     -1380.8614      35.420596     -1345.4409     -1410.569       7470.0858      13.822721      23.941654      22.572408    
     45000   661.64669     -1378.8454      36.86108      -1341.9843     -2693.4544      7500.9258      13.841717      23.974557      22.603429    
     45500   642.40521     -1379.2901      35.789115     -1343.501       1990.8292      7415.2252      13.788799      23.882901      22.517015    
     46000   610.35223     -1379.2641      34.003408     -1345.2607     -2124.167       7477.1366      13.827068      23.949185      22.579508    
     46500   684.69419     -1375.6297      38.145082     -1337.4847     -1389.0819      7518.1204      13.852285      23.992862      22.620687    
     47000   628.31403     -1378.2558      35.00408      -1343.2517      512.98764      7389.6552      13.772932      23.855417      22.491103    
     47500   676.63724     -1377.5556      37.69622      -1339.8593     -2482.0576      7451.8456      13.811461      23.922152      22.554021    
     48000   672.33656     -1374.877       37.456625     -1337.4204     -3337.9525      7481.9026      13.830005      23.954272      22.584304    
     48500   629.73768     -1379.4269      35.083393     -1344.3435      993.58542      7454.1167      13.812864      23.924582      22.556312    
     49000   647.78902     -1378.9626      36.089053     -1342.8736     -2593.1279      7495.4863      13.83837       23.96876       22.597964    
     49500   661.96323     -1377.5781      36.878715     -1340.6994      2423.8931      7437.247       13.802436      23.90652       22.539283    
     50000   636.46276     -1376.0194      35.458055     -1340.5613      1458.9107      7441.0164      13.804767      23.910558      22.543091    
Loop time of 583.942 on 8 procs for 50000 steps with 432 atoms

Performance: 7.398 ns/day, 3.244 hours/ns, 85.625 timesteps/s, 36.990 katom-step/s
86.9% CPU use with 1 MPI tasks x 8 OpenMP threads

MPI task timing breakdown:
Section |  min time  |  avg time  |  max time  |%varavg| %total
---------------------------------------------------------------
Pair    | 475.8      | 475.8      | 475.8      |   0.0 | 81.48
Neigh   | 0.27371    | 0.27371    | 0.27371    |   0.0 |  0.05
Comm    | 1.3415     | 1.3415     | 1.3415     |   0.0 |  0.23
Output  | 0.014624   | 0.014624   | 0.014624   |   0.0 |  0.00
Modify  | 106.19     | 106.19     | 106.19     |   0.0 | 18.19
Other   |            | 0.3247     |            |       |  0.06

Nlocal:            432 ave         432 max         432 min
Histogram: 1 0 0 0 0 0 0 0 0 0
Nghost:           2260 ave        2260 max        2260 min
Histogram: 1 0 0 0 0 0 0 0 0 0
Neighs:          26809 ave       26809 max       26809 min
Histogram: 1 0 0 0 0 0 0 0 0 0
FullNghs:        53618 ave       53618 max       53618 min
Histogram: 1 0 0 0 0 0 0 0 0 0

Total # of neighbors = 53618
Ave neighs/atom = 124.11574
Neighbor list builds = 238
Dangerous builds = 0

=== FINAL RESULTS: DHCP at 650 K ===
Atoms: 432 | PE/atom: -3.18940567934877 eV/atom
WARNING: Detected non-ASCII characters in input. Will try to continue by replacing with ASCII equivalents where known. (src/input.cpp:479)
Volume: 7441.01637422711 …³ | Area: 330.079691824847 ²
==========================================
DHCP 650 432 -3.18940567934877 7441.01637422711 13.8047672536889 23.9105582701254 22.5430905278946 330.079691824847
Simulation complete!
Total wall time: 0:13:28
