LAMMPS (10 Sep 2025)
  using 8 OpenMP thread(s) per MPI task
Loaded 1 plugins from C:\Users\harsh\Downloads\LAMMPS 64-bit 10Sep2025\plugins
using multi-threaded neighbor list subroutines
Reading data file ...
  orthogonal box = (0 0 0) to (17.182695 29.7613 28.059223)
  1 by 1 by 1 MPI processor grid
  reading atoms ...
  432 atoms
  read_data CPU = 0.003 seconds
=== STAGE 1: Energy Minimization ===
Switching to 'neigh_modify every 1 delay 0 check yes' setting during minimization
No /omp style for force computation currently active
Neighbor list info ...
  update: every = 1 steps, delay = 0 steps, check = yes
  max neighbors/atom: 4000, page size: 100000
  master list distance cutoff = 8
  ghost atom cutoff = 8
  binsize = 4, bins = 5 8 8
  2 neighbor lists, perpetual/occasional/extra = 2 0 0
  (1) pair meam, perpetual
      attributes: full, newton on, omp
      pair build: full/bin/atomonly/omp
      stencil: full/bin/3d
      bin: standard
  (2) pair meam, perpetual, half/full from (1)
      attributes: half, newton on, omp
      pair build: halffull/newton/omp
      stencil: none
      bin: none
Setting up cg style minimization ...
  Unit style    : metal
  Current step  : 0
Per MPI rank memory allocation (min/avg/max) = 19.26 | 19.26 | 19.26 Mbytes
   Step          Temp          PotEng         KinEng         TotEng         Press          Volume           Lx             Ly             Lz      
         0   0             -1048.6839      0             -1048.6839     -25039.195      14348.907      17.182695      29.7613        28.059223    
        21   0             -1109.9319      0             -1109.9319     -65756.088      14348.907      17.182695      29.7613        28.059223    
Loop time of 0.067917 on 8 procs for 21 steps with 432 atoms

0.0% CPU use with 1 MPI tasks x 8 OpenMP threads

Minimization stats:
  Stopping criterion = energy tolerance
  Energy initial, next-to-last, final = 
     -1048.68392303789  -1109.93094075418  -1109.93189068993
  Force two-norm initial, final = 9.1454401 0.039864912
  Force max component initial, final = 0.62226839 0.0044484776
  Final line search alpha, max atom move = 1 0.0044484776
  Iterations, force evaluations = 21 27

MPI task timing breakdown:
Section |  min time  |  avg time  |  max time  |%varavg| %total
---------------------------------------------------------------
Pair    | 0.06117    | 0.06117    | 0.06117    |   0.0 | 90.07
Neigh   | 0          | 0          | 0          |   0.0 |  0.00
Comm    | 0.000307   | 0.000307   | 0.000307   |   0.0 |  0.45
Output  | 0          | 0          | 0          |   0.0 |  0.00
Modify  | 0.005765   | 0.005765   | 0.005765   |   0.0 |  8.49
Other   |            | 0.000675   |            |       |  0.99

Nlocal:            432 ave         432 max         432 min
Histogram: 1 0 0 0 0 0 0 0 0 0
Nghost:           1599 ave        1599 max        1599 min
Histogram: 1 0 0 0 0 0 0 0 0 0
Neighs:          15336 ave       15336 max       15336 min
Histogram: 1 0 0 0 0 0 0 0 0 0
FullNghs:        30672 ave       30672 max       30672 min
Histogram: 1 0 0 0 0 0 0 0 0 0

Total # of neighbors = 30672
Ave neighs/atom = 71
Neighbor list builds = 0
Dangerous builds = 0
Minimized PE/atom: -2.56928678400447 eV/atom
=== STAGE 2: NPT Equilibration at 200 K ===
No /omp style for force computation currently active
Setting up Verlet run ...
  Unit style    : metal
  Current step  : 0
  Time step     : 0.002
Per MPI rank memory allocation (min/avg/max) = 18.14 | 18.14 | 18.14 Mbytes
   Step          Temp          PotEng         KinEng         TotEng         Press          Volume           Lx             Ly             Lz      
         0   200           -1109.9319      11.142224     -1098.7897     -64926.672      14348.907      17.182695      29.7613        28.059223    
       500   274.8599      -1381.2251      15.312754     -1365.9124     -2034.364       8405.5108      14.377158      24.901968      23.4778      
      1000   189.78923     -1393.2197      10.573371     -1382.6463      22.003684      8138.1524      14.223079      24.635095      23.22619     
      1500   184.61514     -1396.7558      10.285116     -1386.4707     -747.00952      8038.1073      14.164555      24.533729      23.130622    
      2000   189.61994     -1397.6656      10.56394      -1387.1017     -553.69989      8019.4137      14.153566      24.514695      23.112677    
      2500   213.97055     -1398.0221      11.92054      -1386.1016      838.97059      7949.2628      14.112175      24.443004      23.045085    
      3000   215.00271     -1398.6609      11.978043     -1386.6829     -303.75255      7961.9546      14.119682      24.456006      23.057343    
      3500   196.22259     -1399.0507      10.931781     -1388.119       188.4323       7952.448       14.11406       24.446268      23.048163    
      4000   189.85496     -1399.607       10.577033     -1389.03       -356.57497      7956.6221      14.116529      24.450545      23.052195    
      4500   197.4157      -1400.6204      10.99825      -1389.6221      792.81406      7906.6263      14.086899      24.399225      23.00381     
      5000   214.7619      -1400.4835      11.964626     -1388.5189      2992.7673      7875.6206      14.068461      24.36729       22.973701    
      5500   209.31761     -1399.8111      11.661319     -1388.1498      1002.4836      7925.5689      14.09814       24.418695      23.022166    
      6000   201.33869     -1400.4333      11.216804     -1389.2165      1084.9267      7948.0712      14.11147       24.441783      23.043934    
      6500   187.90663     -1400.808       10.468489     -1390.3395     -1189.5789      7937.6165      14.10528       24.431061      23.033826    
      7000   201.94257     -1400.5585      11.250447     -1389.308       159.43018      7924.4668      14.097486      24.417563      23.021099    
      7500   218.84461     -1400.315       12.192079     -1388.1229     -430.34944      7946.9105      14.110783      24.440593      23.042812    
      8000   195.86784     -1400.3756      10.912017     -1389.4636     -1758.8264      7938.8207      14.105993      24.432297      23.03499     
      8500   191.29643     -1400.7387      10.657339     -1390.0813     -369.15467      7910.4427      14.089165      24.40315       23.007511    
      9000   198.86924     -1400.8298      11.079228     -1389.7506     -507.23409      7889.7156      14.076849      24.381818      22.987398    
      9500   200.73279     -1400.2968      11.183049     -1389.1137      1193.3665      7894.8917      14.079927      24.387148      22.992424    
     10000   197.40945     -1399.4679      10.997902     -1388.47       -540.93783      7954.2775      14.115142      24.448143      23.04993     
     10500   207.55977     -1401.4045      11.563388     -1389.8412     -192.26589      7897.6691      14.081578      24.390008      22.99512     
     11000   200.19279     -1400.1009      11.152965     -1388.9479     -2719.2783      7949.1179      14.112089      24.442856      23.044945    
     11500   207.78872     -1399.708       11.576143     -1388.1318      352.16008      7928.3506      14.099789      24.421551      23.024859    
     12000   197.04203     -1401.4113      10.977433     -1390.4338      1113.8993      7862.8718      14.060866      24.354134      22.961298    
     12500   196.70684     -1401.669       10.958759     -1390.7103      1540.6865      7822.7574      14.036913      24.312647      22.922184    
     13000   188.13911     -1401.6376      10.481441     -1391.1561      2718.1654      7778.9004      14.010632      24.267127      22.879267    
     13500   206.66034     -1402.387       11.513279     -1390.8737     -957.80135      7844.7371      14.050048      24.335397      22.943632    
     14000   211.69492     -1401.8626      11.793761     -1390.0689     -1554.6473      7835.3432      14.044437      24.325679      22.93447     
     14500   210.68012     -1402.373       11.737226     -1390.6358     -3416.5894      7869.5402      14.06484       24.361017      22.967787    
     15000   204.41873     -1402.9428      11.388397     -1391.5544      1426.9581      7777.6759      14.009897      24.265854      22.878066    
     15500   203.72524     -1402.8404      11.349762     -1391.4906      794.26017      7814.8605      14.032189      24.304464      22.914468    
     16000   187.90781     -1401.7523      10.468555     -1391.2838     -1171.9877      7837.1814      14.045536      24.327581      22.936263    
     16500   218.5687      -1402.1697      12.176708     -1389.993       711.22362      7783.0129      14.013101      24.271403      22.883298    
     17000   180.80581     -1402.3079      10.072894     -1392.235       1337.3231      7822.309       14.036645      24.312183      22.921746    
     17500   203.0858      -1403.5051      11.314138     -1392.191      -2238.0122      7850.9742      14.05377       24.341844      22.949711    
     18000   203.54843     -1402.3353      11.339912     -1390.9954     -1206.6037      7819.2281      14.034802      24.308991      22.918736    
     18500   202.55429     -1402.2765      11.284527     -1390.992      -642.60903      7826.8853      14.039382      24.316923      22.926215    
     19000   195.09593     -1402.3293      10.869013     -1391.4603      1868.5452      7763.4201      14.001332      24.251019      22.86408     
     19500   203.80224     -1402.2384      11.354051     -1390.8844      93.818425      7794.9199      14.020243      24.283774      22.894962    
     20000   174.01584     -1403.3428      9.6946179     -1393.6482     -529.34623      7793.6998      14.019512      24.282507      22.893767    
Loop time of 139.683 on 8 procs for 20000 steps with 432 atoms

Performance: 24.742 ns/day, 0.970 hours/ns, 143.181 timesteps/s, 61.854 katom-step/s
94.7% CPU use with 1 MPI tasks x 8 OpenMP threads

MPI task timing breakdown:
Section |  min time  |  avg time  |  max time  |%varavg| %total
---------------------------------------------------------------
Pair    | 112.83     | 112.83     | 112.83     |   0.0 | 80.78
Neigh   | 0.014218   | 0.014218   | 0.014218   |   0.0 |  0.01
Comm    | 0.28644    | 0.28644    | 0.28644    |   0.0 |  0.21
Output  | 0.003567   | 0.003567   | 0.003567   |   0.0 |  0.00
Modify  | 26.497     | 26.497     | 26.497     |   0.0 | 18.97
Other   |            | 0.05134    |            |       |  0.04

Nlocal:            432 ave         432 max         432 min
Histogram: 1 0 0 0 0 0 0 0 0 0
Nghost:           2203 ave        2203 max        2203 min
Histogram: 1 0 0 0 0 0 0 0 0 0
Neighs:          25159 ave       25159 max       25159 min
Histogram: 1 0 0 0 0 0 0 0 0 0
FullNghs:        50318 ave       50318 max       50318 min
Histogram: 1 0 0 0 0 0 0 0 0 0

Total # of neighbors = 50318
Ave neighs/atom = 116.47685
Neighbor list builds = 18
Dangerous builds = 0
=== STAGE 3: NPT Production at 200 K ===
No /omp style for force computation currently active
Setting up Verlet run ...
  Unit style    : metal
  Current step  : 0
  Time step     : 0.001
Per MPI rank memory allocation (min/avg/max) = 18.37 | 18.37 | 18.37 Mbytes
   Step          Temp          PotEng         KinEng         TotEng         Press          Volume           Lx             Ly             Lz      
         0   174.01584     -1403.3428      9.6946179     -1393.6482     -529.34623      7793.6998      14.019512      24.282507      22.893767    
       500   201.39924     -1402.144       11.220178     -1390.9238      422.93116      7803.1127      14.025154      24.292279      22.90298     
      1000   200.20657     -1402.6341      11.153733     -1391.4803     -1166.0884      7798.1077      14.022154      24.287084      22.898082    
      1500   195.82087     -1402.4869      10.9094       -1391.5775      656.04249      7787.0169      14.015504      24.275564      22.887222    
      2000   194.04994     -1402.9946      10.81074      -1392.1839      2430.3975      7746.7065      13.991277      24.233603      22.84766     
      2500   198.74699     -1402.8468      11.072418     -1391.7743      1046.655       7843.9167      14.049558      24.334548      22.942832    
      3000   197.2505      -1402.5849      10.989047     -1391.5959      2009.6188      7799.6751      14.023094      24.288711      22.899616    
      3500   200.04298     -1402.8398      11.144619     -1391.6952      810.05273      7831.3459      14.042049      24.321542      22.930569    
      4000   198.95133     -1402.4517      11.083802     -1391.3679      1408.2189      7807.817       14.027972      24.29716       22.907582    
      4500   208.49655     -1403.0048      11.615577     -1391.3892      2026.0389      7782.9326      14.013053      24.271319      22.883219    
      5000   216.10018     -1402.7423      12.039183     -1390.7032      456.78552      7812.0308      14.030495      24.30153       22.911702    
      5500   207.68072     -1402.1035      11.570126     -1390.5334      30.338078      7839.0463      14.04665       24.329511      22.938083    
      6000   204.0797      -1402.8827      11.369509     -1391.5132      1949.923       7832.0369      14.042462      24.322257      22.931244    
      6500   192.04963     -1403.2186      10.699301     -1392.5193     -1179.4197      7846.7832      14.051269      24.337512      22.945626    
      7000   200.27348     -1403.2143      11.15746      -1392.0569      953.07917      7824.3218      14.037849      24.314268      22.923712    
      7500   199.45899     -1402.2987      11.112084     -1391.1866      290.14531      7832.1761      14.042545      24.322401      22.93138     
      8000   209.26253     -1402.3597      11.65825      -1390.7015      316.18727      7833.5179      14.043347      24.32379       22.932689    
      8500   208.82989     -1403.0269      11.634148     -1391.3928      917.57715      7778.4443      14.010359      24.266653      22.87882     
      9000   201.28965     -1403.2329      11.214072     -1392.0188      2587.9436      7782.4001      14.012733      24.270766      22.882697    
      9500   208.15914     -1403.4209      11.59678      -1391.8241      448.33736      7793.8954      14.019629      24.28271       22.893959    
     10000   206.73091     -1402.7656      11.517211     -1391.2484     -192.39772      7811.0515      14.029908      24.300514      22.910745    
     10500   200.18297     -1403.5463      11.152418     -1392.3939     -194.74308      7799.5036      14.022991      24.288533      22.899448    
     11000   191.99947     -1402.4506      10.696506     -1391.7541     -3346.0125      7898.1142      14.081842      24.390466      22.995552    
     11500   187.61682     -1402.6747      10.452344     -1392.2224     -484.1978       7855.6531      14.056562      24.346679      22.954269    
     12000   206.96472     -1402.7879      11.530237     -1391.2576     -1444.0866      7882.4605      14.072533      24.374342      22.98035     
     12500   208.89456     -1402.778       11.637751     -1391.1403     -1323.2877      7835.7752      14.044695      24.326126      22.934892    
     13000   191.89588     -1402.839       10.690735     -1392.1483      1677.2233      7823.0748      14.037103      24.312976      22.922494    
     13500   212.80362     -1403.7775      11.855528     -1391.922       1840.8571      7785.0636      14.014332      24.273534      22.885308    
     14000   201.26115     -1402.5761      11.212485     -1391.3636      826.06399      7778.4607      14.010368      24.26667       22.878836    
     14500   194.60008     -1402.9871      10.841389     -1392.1457      326.3198       7826.5968      14.03921       24.316624      22.925933    
     15000   196.7628      -1403.5715      10.961876     -1392.6097      1549.624       7777.5457      14.009819      24.265718      22.877939    
     15500   184.54705     -1402.7914      10.281323     -1392.5101      283.84721      7807.9453      14.028048      24.297293      22.907707    
     16000   198.57121     -1403.0996      11.062625     -1392.0369     -1539.504       7816.3875      14.033102      24.306046      22.91596     
     16500   195.74909     -1402.3991      10.905401     -1391.4937     -1069.9026      7841.9446      14.04838       24.332509      22.940909    
     17000   213.56399     -1404.1779      11.89789      -1392.28       -1440.9482      7812.4516      14.030747      24.301966      22.912113    
     17500   191.58679     -1403.0391      10.673515     -1392.3656      53.292327      7799.201       14.02281       24.288219      22.899152    
     18000   198.16114     -1403.7184      11.039779     -1392.6786      1191.1258      7800.4001      14.023528      24.289463      22.900326    
     18500   200.3593      -1403.1366      11.162241     -1391.9743     -189.25898      7825.6662      14.038653      24.31566       22.925024    
     19000   208.33979     -1403.0647      11.606843     -1391.4579     -250.87734      7814.5005      14.031973      24.30409       22.914116    
     19500   198.55065     -1403.2203      11.06148      -1392.1588     -3038.299       7879.1417      14.070557      24.37092       22.977124    
     20000   187.87064     -1402.4732      10.466484     -1392.0067     -655.87315      7873.5247      14.067213      24.365128      22.971663    
     20500   203.23614     -1402.5906      11.322513     -1391.268      -1836.313       7862.9033      14.060885      24.354167      22.961329    
     21000   199.3503      -1402.6029      11.106029     -1391.4969     -1238.3324      7826.7421      14.039296      24.316775      22.926075    
     21500   205.20819     -1403.4199      11.432379     -1391.9875     -703.64228      7840.3697      14.04744       24.33088       22.939373    
     22000   195.47384     -1403.2132      10.890067     -1392.3231      1306.648       7816.0731      14.032914      24.305721      22.915653    
     22500   200.43314     -1402.7501      11.166355     -1391.5838      1030.8653      7825.3718      14.038477      24.315356      22.924737    
     23000   201.42001     -1402.44        11.221335     -1391.2187      663.65106      7809.2352      14.028821      24.298631      22.908969    
     23500   199.2968      -1402.7646      11.103048     -1391.6615      1006.3421      7795.3758      14.020517      24.284247      22.895408    
     24000   199.78024     -1403.2746      11.129982     -1392.1446     -1592.1085      7867.4994      14.063624      24.358911      22.965802    
     24500   199.86863     -1403.6571      11.134906     -1392.5222      2278.1947      7786.1503      14.014984      24.274664      22.886373    
     25000   204.39137     -1402.9011      11.386873     -1391.5142      612.51359      7811.2875      14.03005       24.300759      22.910975    
     25500   204.76859     -1403.6622      11.407888     -1392.2544      50.282918      7771.4367      14.00615       24.259363      22.871947    
     26000   195.90159     -1403.6926      10.913897     -1392.7787      685.05083      7801.7167      14.024317      24.29083       22.901614    
     26500   189.32555     -1402.8359      10.547539     -1392.2884     -599.388        7813.7792      14.031541      24.303342      22.913411    
     27000   194.99167     -1403.2119      10.863205     -1392.3487      1281.0979      7781.9948      14.01249       24.270345      22.8823      
     27500   201.39694     -1402.6502      11.22005      -1391.4301      1876.5877      7797.5999      14.02185       24.286557      22.897585    
     28000   185.61168     -1403.8492      10.340635     -1393.5085      294.07         7806.9649      14.027461      24.296276      22.906748    
     28500   217.17643     -1403.2277      12.099143     -1391.1286      1245.1388      7801.7128      14.024315      24.290826      22.90161     
     29000   207.06652     -1402.8412      11.535908     -1391.3053      902.05866      7776.1197      14.008963      24.264235      22.87654     
     29500   206.85522     -1402.4598      11.524136     -1390.9356     -1704.9652      7812.6043      14.030838      24.302124      22.912263    
     30000   204.50747     -1403.4183      11.393341     -1392.025      -345.42942      7812.3709      14.030698      24.301882      22.912034    
     30500   210.55536     -1404.1893      11.730275     -1392.4591     -1572.0375      7825.4699      14.038536      24.315457      22.924833    
     31000   206.72781     -1403.5728      11.517038     -1392.0558     -1660.1033      7792.0806      14.018541      24.280825      22.892182    
     31500   202.94312     -1402.6439      11.306189     -1391.3377     -711.49445      7815.4444      14.032538      24.305069      22.915039    
     32000   201.14858     -1403.1534      11.206213     -1391.9471      523.8453       7774.508       14.007995      24.262559      22.87496     
     32500   196.91841     -1403.8301      10.970546     -1392.8596      150.29629      7797.8721      14.022013      24.286839      22.897852    
     33000   196.0409      -1403.6941      10.921658     -1392.7725      1388.0553      7730.1418      13.981298      24.216318      22.831364    
     33500   205.2298      -1402.3595      11.433582     -1390.9259      1963.8918      7770.3028      14.005469      24.258184      22.870835    
     34000   195.77636     -1403.4078      10.906921     -1392.5009     -942.60984      7776.274       14.009055      24.264396      22.876692    
     34500   205.17201     -1403.1743      11.430363     -1391.744      -922.21437      7789.0294      14.016711      24.277656      22.889193    
     35000   214.61853     -1403.8586      11.956639     -1391.902       1724.1338      7764.8387      14.002185      24.252496      22.865473    
     35500   201.77715     -1403.9503      11.241232     -1392.709      -1410.7508      7816.1509      14.032961      24.305801      22.915729    
     36000   200.89107     -1403.1228      11.191867     -1391.931      -1587.9088      7842.9579      14.048985      24.333557      22.941897    
     36500   199.81538     -1403.7536      11.131939     -1392.6217     -547.78869      7809.2618      14.028837      24.298658      22.908995    
     37000   193.90824     -1403.4795      10.802846     -1392.6767      242.59104      7780.1457      14.01138       24.268422      22.880488    
     37500   204.57695     -1403.0055      11.397212     -1391.6082      1067.1086      7771.6333      14.006268      24.259568      22.87214     
     38000   214.84809     -1403.7429      11.969428     -1391.7735     -1194.3099      7801.9449      14.024454      24.291067      22.901837    
     38500   196.3915      -1403.0987      10.941191     -1392.1575      1432.2752      7793.0958      14.01915       24.28188       22.893176    
     39000   202.88721     -1403.0723      11.303074     -1391.7692     -474.23259      7800.5774      14.023635      24.289647      22.900499    
     39500   195.71146     -1403.347       10.903305     -1392.4437     -1234.8053      7818.2637      14.034225      24.307991      22.917794    
     40000   189.44463     -1403.549       10.554173     -1392.9948     -749.27626      7779.8627      14.01121       24.268128      22.88021     
     40500   195.14963     -1403.0432      10.872005     -1392.1712     -913.61638      7771.7204      14.00632       24.259659      22.872225    
     41000   193.97723     -1402.4969      10.806689     -1391.6902      1413.2559      7810.6198      14.02965       24.300067      22.910322    
     41500   206.61057     -1403.5369      11.510507     -1392.0264     -1324.4251      7844.5129      14.049914      24.335165      22.943413    
     42000   198.11715     -1403.0741      11.037329     -1392.0367      1140.9486      7825.9686      14.038834      24.315974      22.92532     
     42500   201.72529     -1402.9702      11.238342     -1391.7319      2582.0711      7766.6358      14.003265      24.254367      22.867236    
     43000   197.01876     -1403.1753      10.976136     -1392.1991      526.31343      7775.2162      14.00842       24.263295      22.875654    
     43500   185.8323      -1403.4018      10.352926     -1393.0488      2077.9194      7795.8685      14.020812      24.284759      22.89589     
     44000   189.85956     -1403.684       10.577289     -1393.1067     -671.41264      7781.3113      14.01208       24.269634      22.88163     
     44500   194.26467     -1402.9104      10.822703     -1392.0877     -347.1327       7831.3739      14.042065      24.321571      22.930597    
     45000   193.27031     -1403.8216      10.767306     -1393.0543     -2687.5986      7835.3562      14.044445      24.325692      22.934483    
     45500   187.12286     -1403.9711      10.424824     -1393.5463     -1972.892       7836.6096      14.045194      24.326989      22.935706    
     46000   205.23545     -1403.2577      11.433897     -1391.8238     -1362.0696      7834.1424      14.04372       24.324436      22.933298    
     46500   191.78858     -1402.3353      10.684757     -1391.6506      2538.2466      7771.5919      14.006243      24.259525      22.872099    
     47000   187.72347     -1404.5354      10.458285     -1394.0771     -521.82817      7772.6694      14.006891      24.260646      22.873156    
     47500   205.2294      -1403.4564      11.43356      -1392.0229      924.16411      7774.1401      14.007774      24.262176      22.874599    
     48000   202.98752     -1403.2962      11.308662     -1391.9875     -180.82039      7807.3609      14.027698      24.296686      22.907136    
     48500   197.06119     -1403.8036      10.9785       -1392.8251     -1504.4573      7782.2485      14.012642      24.270608      22.882549    
     49000   194.83788     -1403.4129      10.854637     -1392.5583      1304.3205      7788.9765      14.016679      24.2776        22.889141    
     49500   210.47117     -1403.9021      11.725585     -1392.1765     -1359.7598      7798.389       14.022323      24.287376      22.898358    
     50000   207.38583     -1403.1901      11.553698     -1391.6364      719.33581      7803.4147      14.025335      24.292592      22.903276    
Loop time of 370.233 on 8 procs for 50000 steps with 432 atoms

Performance: 11.668 ns/day, 2.057 hours/ns, 135.050 timesteps/s, 58.342 katom-step/s
92.5% CPU use with 1 MPI tasks x 8 OpenMP threads

MPI task timing breakdown:
Section |  min time  |  avg time  |  max time  |%varavg| %total
---------------------------------------------------------------
Pair    | 296        | 296        | 296        |   0.0 | 79.95
Neigh   | 0.001388   | 0.001388   | 0.001388   |   0.0 |  0.00
Comm    | 0.75338    | 0.75338    | 0.75338    |   0.0 |  0.20
Output  | 0.009306   | 0.009306   | 0.009306   |   0.0 |  0.00
Modify  | 73.327     | 73.327     | 73.327     |   0.0 | 19.81
Other   |            | 0.1378     |            |       |  0.04

Nlocal:            432 ave         432 max         432 min
Histogram: 1 0 0 0 0 0 0 0 0 0
Nghost:           2188 ave        2188 max        2188 min
Histogram: 1 0 0 0 0 0 0 0 0 0
Neighs:          25076 ave       25076 max       25076 min
Histogram: 1 0 0 0 0 0 0 0 0 0
FullNghs:        50152 ave       50152 max       50152 min
Histogram: 1 0 0 0 0 0 0 0 0 0

Total # of neighbors = 50152
Ave neighs/atom = 116.09259
Neighbor list builds = 2
Dangerous builds = 0

=== FINAL RESULTS: DHCP at 200 K ===
Atoms: 432 | PE/atom: -3.24869012511752 eV/atom
WARNING: Detected non-ASCII characters in input. Will try to continue by replacing with ASCII equivalents where known. (src/input.cpp:479)
Volume: 7803.4146950984 …³ | Area: 340.711733204299 ²
==========================================
DHCP 200 432 -3.24869012511752 7803.4146950984 14.0253346085203 24.2925921351865 22.9032755100902 340.711733204299
Simulation complete!
Total wall time: 0:08:30
