LAMMPS (10 Sep 2025)
  using 8 OpenMP thread(s) per MPI task
Loaded 1 plugins from C:\Users\harsh\Downloads\LAMMPS 64-bit 10Sep2025\plugins
using multi-threaded neighbor list subroutines
Reading data file ...
  orthogonal box = (0 0 0) to (24.3 24.3 24.3)
  1 by 1 by 1 MPI processor grid
  reading atoms ...
  864 atoms
  read_data CPU = 0.008 seconds
=== STAGE 1: Energy Minimization ===
Switching to 'neigh_modify every 1 delay 0 check yes' setting during minimization
No /omp style for force computation currently active
Neighbor list info ...
  update: every = 1 steps, delay = 0 steps, check = yes
  max neighbors/atom: 4000, page size: 100000
  master list distance cutoff = 8
  ghost atom cutoff = 8
  binsize = 4, bins = 7 7 7
  2 neighbor lists, perpetual/occasional/extra = 2 0 0
  (1) pair meam, perpetual
      attributes: full, newton on, omp
      pair build: full/bin/atomonly/omp
      stencil: full/bin/3d
      bin: standard
  (2) pair meam, perpetual, half/full from (1)
      attributes: half, newton on, omp
      pair build: halffull/newton/omp
      stencil: none
      bin: none
Setting up cg style minimization ...
  Unit style    : metal
  Current step  : 0
Per MPI rank memory allocation (min/avg/max) = 20.51 | 20.51 | 20.51 Mbytes
   Step          Temp          PotEng         KinEng         TotEng         Press          Volume           Lx             Ly             Lz      
         0   0             -2903.0314      0             -2903.0314     -0.017393413    14348.907      24.3           24.3           24.3         
         1   0             -2903.0314      0             -2903.0314     -0.017393413    14348.907      24.3           24.3           24.3         
Loop time of 0.040974 on 8 procs for 1 steps with 864 atoms

76.3% CPU use with 1 MPI tasks x 8 OpenMP threads

Minimization stats:
  Stopping criterion = energy tolerance
  Energy initial, next-to-last, final = 
     -2903.03136038828  -2903.03136038828  -2903.03136038828
  Force two-norm initial, final = 2.9054316e-13 2.8416052e-13
  Force max component initial, final = 1.169111e-14 1.169111e-14
  Final line search alpha, max atom move = 1 1.169111e-14
  Iterations, force evaluations = 1 2

MPI task timing breakdown:
Section |  min time  |  avg time  |  max time  |%varavg| %total
---------------------------------------------------------------
Pair    | 0.039586   | 0.039586   | 0.039586   |   0.0 | 96.61
Neigh   | 0          | 0          | 0          |   0.0 |  0.00
Comm    | 6.7e-05    | 6.7e-05    | 6.7e-05    |   0.0 |  0.16
Output  | 0          | 0          | 0          |   0.0 |  0.00
Modify  | 0.001102   | 0.001102   | 0.001102   |   0.0 |  2.69
Other   |            | 0.000219   |            |       |  0.53

Nlocal:            864 ave         864 max         864 min
Histogram: 1 0 0 0 0 0 0 0 0 0
Nghost:           2565 ave        2565 max        2565 min
Histogram: 1 0 0 0 0 0 0 0 0 0
Neighs:          57888 ave       57888 max       57888 min
Histogram: 1 0 0 0 0 0 0 0 0 0
FullNghs:       115776 ave      115776 max      115776 min
Histogram: 1 0 0 0 0 0 0 0 0 0

Total # of neighbors = 115776
Ave neighs/atom = 134
Neighbor list builds = 0
Dangerous builds = 0
Minimized PE/atom: -3.3599900004494 eV/atom
=== STAGE 2: NPT Equilibration at 200 K ===
No /omp style for force computation currently active
Setting up Verlet run ...
  Unit style    : metal
  Current step  : 0
  Time step     : 0.002
Per MPI rank memory allocation (min/avg/max) = 19.38 | 19.38 | 19.38 Mbytes
   Step          Temp          PotEng         KinEng         TotEng         Press          Volume           Lx             Ly             Lz      
         0   200           -2903.0314      22.310301     -2880.7211      1660.7381      14348.907      24.3           24.3           24.3         
       500   197.07011     -2883.4352      21.983468     -2861.4518      1443.9123      14401.652      24.329738      24.329738      24.329738    
      1000   193.92056     -2881.31        21.632131     -2859.6778      103.02744      14434.626      24.348293      24.348293      24.348293    
      1500   201.56116     -2879.8147      22.484451     -2857.3303     -851.84796      14459.604      24.362329      24.362329      24.362329    
      2000   202.79719     -2879.2726      22.622332     -2856.6503     -796.34794      14458.517      24.361718      24.361718      24.361718    
      2500   193.08787     -2879.4606      21.539242     -2857.9214     -431.66458      14449.168      24.356466      24.356466      24.356466    
      3000   194.84072     -2880.7669      21.734776     -2859.0321     -139.23431      14440.996      24.351874      24.351874      24.351874    
      3500   196.19519     -2880.771       21.885869     -2858.8851      120.54013      14434.683      24.348325      24.348325      24.348325    
      4000   203.87209     -2880.2281      22.742239     -2857.4858      365.32982      14435.143      24.348583      24.348583      24.348583    
      4500   193.21014     -2878.3189      21.552882     -2856.7661      404.76148      14434.793      24.348387      24.348387      24.348387    
      5000   204.65744     -2880.5486      22.829845     -2857.7187      112.82239      14438.177      24.350289      24.350289      24.350289    
      5500   194.92115     -2880.0579      21.743748     -2858.3141     -413.97356      14448.961      24.35635       24.35635       24.35635     
      6000   192.00724     -2879.9166      21.418697     -2858.4979     -848.63718      14458.147      24.36151       24.36151       24.36151     
      6500   200.9034      -2880.1696      22.411076     -2857.7586     -990.22114      14461.29       24.363276      24.363276      24.363276    
      7000   211.42855     -2880.7409      23.585173     -2857.1557     -296.40342      14448.898      24.356314      24.356314      24.356314    
      7500   194.59133     -2880.6768      21.706956     -2858.9699      760.42643      14421.292      24.340793      24.340793      24.340793    
      8000   195.50928     -2880.9633      21.809355     -2859.154       1779.2174      14402.593      24.330268      24.330268      24.330268    
      8500   210.82546     -2881.6055      23.517898     -2858.0876      1523.9204      14408.608      24.333655      24.333655      24.333655    
      9000   195.54734     -2879.4415      21.813601     -2857.6279      492.5178       14431.481      24.346524      24.346524      24.346524    
      9500   199.85008     -2880.3411      22.293577     -2858.0475     -887.24238      14457.783      24.361306      24.361306      24.361306    
     10000   204.5078      -2881.9945      22.813153     -2859.1813     -1531.9437      14468.782      24.367482      24.367482      24.367482    
     10500   199.77029     -2880.5433      22.284676     -2858.2586     -1419.2935      14469.005      24.367607      24.367607      24.367607    
     11000   200.4546      -2879.2423      22.361012     -2856.8813     -348.15503      14449.352      24.356569      24.356569      24.356569    
     11500   204.72147     -2879.3624      22.836989     -2856.5254      809.41955      14426.658      24.343812      24.343812      24.343812    
     12000   194.8337      -2879.4511      21.733992     -2857.7172      1318.9702      14415.79       24.337697      24.337697      24.337697    
     12500   193.23464     -2880.459       21.555614     -2858.9033      842.6167       14421.832      24.341097      24.341097      24.341097    
     13000   197.0523      -2879.9282      21.981481     -2857.9467      171.94979      14436.122      24.349134      24.349134      24.349134    
     13500   205.51491     -2880.0699      22.925497     -2857.1444     -283.35945      14446.677      24.355067      24.355067      24.355067    
     14000   199.35009     -2879.7356      22.237803     -2857.4978     -384.87638      14450.312      24.357109      24.357109      24.357109    
     14500   204.33812     -2881.3869      22.794225     -2858.5927     -593.53079      14448.902      24.356317      24.356317      24.356317    
     15000   192.11555     -2880.564       21.430779     -2859.1332     -123.77032      14440.245      24.351452      24.351452      24.351452    
     15500   202.94094     -2880.7015      22.638367     -2858.0631      297.28766      14431.629      24.346608      24.346608      24.346608    
     16000   200.47269     -2880.1712      22.363031     -2857.8081      1175.8305      14416.068      24.337854      24.337854      24.337854    
     16500   200.42282     -2881.3685      22.357468     -2859.011       1567.3896      14405.287      24.331785      24.331785      24.331785    
     17000   190.22082     -2880.0595      21.219419     -2858.84        642.13484      14425.596      24.343214      24.343214      24.343214    
     17500   202.42062     -2880.9847      22.580324     -2858.4043     -1097.6458      14460.1        24.362607      24.362607      24.362607    
     18000   210.06883     -2879.944       23.433494     -2856.5105     -1888.7997      14480.078      24.373822      24.373822      24.373822    
     18500   201.6616      -2879.7726      22.495656     -2857.2769     -1690.8968      14474.882      24.370906      24.370906      24.370906    
     19000   197.1797      -2880.0981      21.995692     -2858.1024     -460.1499       14448.234      24.355942      24.355942      24.355942    
     19500   203.24386     -2880.5958      22.672159     -2857.9237      582.80929      14427.348      24.3442        24.3442        24.3442      
     20000   201.83424     -2878.9633      22.514913     -2856.4484      783.02655      14428.755      24.344991      24.344991      24.344991    
Loop time of 231.095 on 8 procs for 20000 steps with 864 atoms

Performance: 14.955 ns/day, 1.605 hours/ns, 86.545 timesteps/s, 74.775 katom-step/s
93.9% CPU use with 1 MPI tasks x 8 OpenMP threads

MPI task timing breakdown:
Section |  min time  |  avg time  |  max time  |%varavg| %total
---------------------------------------------------------------
Pair    | 199.87     | 199.87     | 199.87     |   0.0 | 86.49
Neigh   | 0          | 0          | 0          |   0.0 |  0.00
Comm    | 0.34575    | 0.34575    | 0.34575    |   0.0 |  0.15
Output  | 0.003677   | 0.003677   | 0.003677   |   0.0 |  0.00
Modify  | 30.811     | 30.811     | 30.811     |   0.0 | 13.33
Other   |            | 0.06849    |            |       |  0.03

Nlocal:            864 ave         864 max         864 min
Histogram: 1 0 0 0 0 0 0 0 0 0
Nghost:           2565 ave        2565 max        2565 min
Histogram: 1 0 0 0 0 0 0 0 0 0
Neighs:          57888 ave       57888 max       57888 min
Histogram: 1 0 0 0 0 0 0 0 0 0
FullNghs:       115776 ave      115776 max      115776 min
Histogram: 1 0 0 0 0 0 0 0 0 0

Total # of neighbors = 115776
Ave neighs/atom = 134
Neighbor list builds = 0
Dangerous builds = 0
=== STAGE 3: NPT Production at 200 K ===
No /omp style for force computation currently active
Setting up Verlet run ...
  Unit style    : metal
  Current step  : 0
  Time step     : 0.001
Per MPI rank memory allocation (min/avg/max) = 19.39 | 19.39 | 19.39 Mbytes
   Step          Temp          PotEng         KinEng         TotEng         Press          Volume           Lx             Ly             Lz      
         0   201.83424     -2878.9633      22.514913     -2856.4484      783.02655      14428.755      24.344991      24.344991      24.344991    
       500   209.40764     -2881.1262      23.359738     -2857.7665      503.18208      14428.075      24.344609      24.344609      24.344609    
      1000   196.87948     -2880.1587      21.962202     -2858.1965      147.40402      14435.591      24.348835      24.348835      24.348835    
      1500   195.55337     -2879.9042      21.814273     -2858.09       -613.99804      14452.251      24.358199      24.358199      24.358199    
      2000   198.62434     -2879.7504      22.156844     -2857.5935     -2075.4225      14482.44       24.375147      24.375147      24.375147    
      2500   191.1819      -2880.1843      21.326629     -2858.8576     -2456.1203      14487.945      24.378235      24.378235      24.378235    
      3000   196.9434      -2881.6168      21.969333     -2859.6475     -912.52453      14453.057      24.358651      24.358651      24.358651    
      3500   190.14456     -2880.0455      21.210912     -2858.8346      978.10052      14419.127      24.339575      24.339575      24.339575    
      4000   199.4614      -2880.1563      22.250219     -2857.9061      1662.5701      14407.009      24.332755      24.332755      24.332755    
      4500   196.73145     -2880.0874      21.945689     -2858.1418      1291.8838      14412.053      24.335594      24.335594      24.335594    
      5000   192.35171     -2880.5086      21.457123     -2859.0515      580.61803      14426.374      24.343652      24.343652      24.343652    
      5500   198.75984     -2881.4204      22.171959     -2859.2485     -330.72291      14443.429      24.353241      24.353241      24.353241    
      6000   201.49934     -2879.8256      22.477555     -2857.3481     -1021.084       14461.829      24.363578      24.363578      24.363578    
      6500   196.29698     -2879.8559      21.897224     -2857.9587     -1085.4721      14461.537      24.363414      24.363414      24.363414    
      7000   200.18323     -2880.4257      22.330741     -2858.095      -570.49962      14452.176      24.358157      24.358157      24.358157    
      7500   203.54359     -2879.4422      22.705594     -2856.7366     -125.85138      14445.931      24.354647      24.354647      24.354647    
      8000   201.38234     -2879.8557      22.464503     -2857.3912      146.49568      14437.267      24.349778      24.349778      24.349778    
      8500   199.60584     -2879.858       22.266332     -2857.5916      309.29799      14435.512      24.348791      24.348791      24.348791    
      9000   195.24877     -2882.1095      21.780295     -2860.3292      447.96967      14425.166      24.342973      24.342973      24.342973    
      9500   203.46964     -2880.2435      22.697345     -2857.5462      412.85314      14431.475      24.346521      24.346521      24.346521    
     10000   198.63611     -2880.088       22.158157     -2857.9298      372.0344       14433.272      24.347531      24.347531      24.347531    
     10500   202.49898     -2880.6723      22.589066     -2858.0832     -568.4338       14450.575      24.357257      24.357257      24.357257    
     11000   197.66327     -2879.2594      22.049635     -2857.2098     -1605.6484      14475.004      24.370974      24.370974      24.370974    
     11500   197.66276     -2880.1372      22.049579     -2858.0876     -1849.7386      14478.077      24.372699      24.372699      24.372699    
     12000   194.86691     -2880.2177      21.737697     -2858.48       -929.36045      14457.709      24.361264      24.361264      24.361264    
     12500   199.85321     -2879.8311      22.293926     -2857.5372      581.08632      14428.959      24.345106      24.345106      24.345106    
     13000   199.65922     -2880.0195      22.272286     -2857.7473      1589.635       14409.483      24.334147      24.334147      24.334147    
     13500   205.36554     -2879.9288      22.908835     -2857.0199      1263.5382      14415.55       24.337562      24.337562      24.337562    
     14000   205.69151     -2880.6255      22.945198     -2857.6803      365.24123      14431.102      24.346311      24.346311      24.346311    
     14500   198.88157     -2880.9684      22.185538     -2858.7829     -158.06431      14440.932      24.351838      24.351838      24.351838    
     15000   188.48519     -2880.5759      21.025806     -2859.5501     -311.8247       14443.66       24.353371      24.353371      24.353371    
     15500   196.19622     -2880.0385      21.885984     -2858.1525     -541.48692      14449.835      24.356841      24.356841      24.356841    
     16000   201.11206     -2880.3078      22.434353     -2857.8734     -593.33578      14450.486      24.357207      24.357207      24.357207    
     16500   192.39006     -2880.7736      21.461401     -2859.3122     -108.7006       14438.942      24.350719      24.350719      24.350719    
     17000   189.89137     -2880.3751      21.182668     -2859.1925      350.61316      14429.445      24.345379      24.345379      24.345379    
     17500   200.23226     -2881.1665      22.33621      -2858.8303      915.70224      14418.758      24.339367      24.339367      24.339367    
     18000   194.32032     -2880.5264      21.676725     -2858.8497      1152.9839      14416.048      24.337843      24.337843      24.337843    
     18500   211.05364     -2881.0812      23.543351     -2857.5378      397.45681      14433.932      24.347903      24.347903      24.347903    
     19000   199.6459      -2880.0178      22.270801     -2857.747      -728.80597      14456.398      24.360528      24.360528      24.360528    
     19500   204.39139     -2881.113       22.800167     -2858.3129     -1581.4754      14470.287      24.368327      24.368327      24.368327    
     20000   190.78406     -2880.9927      21.282249     -2859.7105     -1554.9329      14468.052      24.367072      24.367072      24.367072    
     20500   194.69046     -2880.0849      21.718014     -2858.3668     -662.5667       14453.701      24.359013      24.359013      24.359013    
     21000   201.90824     -2880.0307      22.523168     -2857.5075      714.04705      14426.514      24.34373       24.34373       24.34373     
     21500   193.57417     -2880.0367      21.59349      -2858.4432      1871.4418      14401.174      24.329469      24.329469      24.329469    
     22000   201.05956     -2881.8842      22.428496     -2859.4557      1587.0959      14402.14       24.330013      24.330013      24.330013    
     22500   194.65512     -2880.556       21.714072     -2858.8419      707.27007      14425.212      24.342998      24.342998      24.342998    
     23000   202.93718     -2880.9607      22.637947     -2858.3227     -318.02851      14443.248      24.353139      24.353139      24.353139    
     23500   195.92805     -2878.6306      21.856069     -2856.7746     -584.71981      14454.942      24.35971       24.35971       24.35971     
     24000   196.49288     -2880.2089      21.919076     -2858.2898     -813.77877      14455.63       24.360097      24.360097      24.360097    
     24500   195.08505     -2879.9391      21.762031     -2858.1771     -298.90532      14446.658      24.355056      24.355056      24.355056    
     25000   203.55577     -2879.798       22.706952     -2857.091      -137.83826      14441.888      24.352375      24.352375      24.352375    
     25500   200.27556     -2879.9625      22.34104      -2857.6215      697.12684      14427.698      24.344397      24.344397      24.344397    
     26000   192.98817     -2881.4506      21.528121     -2859.9225      1630.0264      14403.586      24.330827      24.330827      24.330827    
     26500   200.02154     -2880.976       22.312703     -2858.6633      1932.7278      14400.208      24.328925      24.328925      24.328925    
     27000   201.01594     -2880.0871      22.423631     -2857.6635      198.06299      14436.638      24.349424      24.349424      24.349424    
     27500   197.19806     -2879.1232      21.997741     -2857.1255     -1608.2473      14477.154      24.372181      24.372181      24.372181    
     28000   203.39435     -2879.3025      22.688946     -2856.6135     -2161.4697      14486.501      24.377425      24.377425      24.377425    
     28500   202.54349     -2879.5238      22.594031     -2856.9297     -1280.8922      14468.359      24.367245      24.367245      24.367245    
     29000   198.87674     -2880.638       22.184999     -2858.453      -180.33686      14441.796      24.352323      24.352323      24.352323    
     29500   194.12953     -2880.0449      21.655441     -2858.3894      674.83707      14425.972      24.343426      24.343426      24.343426    
     30000   202.91752     -2880.4208      22.635755     -2857.7851      1332.4713      14414.803      24.337141      24.337141      24.337141    
     30500   209.64563     -2879.8717      23.386286     -2856.4854      1061.6838      14421.212      24.340748      24.340748      24.340748    
     31000   195.49656     -2878.7264      21.807935     -2856.9185      522.33149      14433.743      24.347796      24.347796      24.347796    
     31500   193.61554     -2880.2838      21.598105     -2858.6857     -803.63859      14454.544      24.359487      24.359487      24.359487    
     32000   201.32653     -2880.0884      22.458277     -2857.6301     -1355.1737      14468.916      24.367557      24.367557      24.367557    
     32500   201.77319     -2879.8269      22.508103     -2857.3188     -1646.0908      14472.547      24.369595      24.369595      24.369595    
     33000   201.42061     -2879.7556      22.468773     -2857.2868     -713.08426      14454.749      24.359602      24.359602      24.359602    
     33500   192.92335     -2880.0757      21.52089      -2858.5548      1009.3894      14418.739      24.339357      24.339357      24.339357    
     34000   200.10454     -2881.6062      22.321963     -2859.2842      4176.5659      14353.863      24.302797      24.302797      24.302797    
     34500   195.83979     -2880.4133      21.846224     -2858.5671      3447.5471      14371.341      24.312658      24.312658      24.312658    
     35000   205.33708     -2880.4535      22.905661     -2857.5478      936.83857      14421.85       24.341107      24.341107      24.341107    
     35500   201.19759     -2879.8397      22.443894     -2857.3958     -512.09699      14451.485      24.357768      24.357768      24.357768    
     36000   205.92911     -2880.8377      22.971703     -2857.866      -1238.8155      14464.705      24.365193      24.365193      24.365193    
     36500   195.81298     -2880.3503      21.843232     -2858.5071     -1304.0963      14464.884      24.365294      24.365294      24.365294    
     37000   191.94215     -2880.1336      21.411436     -2858.7222     -597.2464       14450.742      24.357351      24.357351      24.357351    
     37500   199.56625     -2879.9931      22.261915     -2857.7312      182.80134      14436.914      24.349579      24.349579      24.349579    
     38000   205.2687      -2880.4299      22.898033     -2857.5318      967.05694      14419.95       24.340038      24.340038      24.340038    
     38500   202.8346      -2881.1744      22.626504     -2858.5479      1667.377       14404.269      24.331212      24.331212      24.331212    
     39000   197.28633     -2880.8004      22.007587     -2858.7928      1629.4792      14405.717      24.332027      24.332027      24.332027    
     39500   196.19146     -2880.6583      21.885453     -2858.7728     -365.82376      14444.262      24.353709      24.353709      24.353709    
     40000   205.55232     -2880.1895      22.929671     -2857.2599     -2396.0808      14489.96       24.379365      24.379365      24.379365    
     40500   206.59119     -2879.4843      23.045558     -2856.4388     -2115.3292      14485.676      24.376962      24.376962      24.376962    
     41000   199.65029     -2880.7463      22.27129      -2858.475      -877.48965      14456.105      24.360363      24.360363      24.360363    
     41500   196.2579      -2880.983       21.892865     -2859.0901      154.31153      14435.04       24.348525      24.348525      24.348525    
     42000   195.57895     -2879.7887      21.817126     -2857.9716      844.80127      14423.57       24.342075      24.342075      24.342075    
     42500   203.20779     -2880.3522      22.668134     -2857.6841      1127.0336      14417.621      24.338728      24.338728      24.338728    
     43000   196.1204      -2880.8176      21.877525     -2858.94        718.94207      14423.487      24.342028      24.342028      24.342028    
     43500   188.23135     -2880.7756      20.99749      -2859.7781     -1.8468485      14436.945      24.349597      24.349597      24.349597    
     44000   198.75661     -2881.1884      22.171599     -2859.0168     -1333.6201      14463.569      24.364555      24.364555      24.364555    
     44500   206.60917     -2881.3767      23.047564     -2858.3291     -1949.0253      14478.228      24.372784      24.372784      24.372784    
     45000   211.49005     -2879.4054      23.592033     -2855.8133     -1679.12        14477.507      24.372379      24.372379      24.372379    
     45500   203.37421     -2879.8718      22.686699     -2857.1851      399.23758      14433.101      24.347435      24.347435      24.347435    
     46000   198.63465     -2880.0272      22.157994     -2857.8692      2444.0773      14391.733      24.324151      24.324151      24.324151    
     46500   193.36702     -2880.5218      21.570382     -2858.9514      1576.7821      14404.958      24.3316        24.3316        24.3316      
     47000   195.95163     -2879.7821      21.858699     -2857.9234      870.7867       14423.08       24.341799      24.341799      24.341799    
     47500   203.47321     -2880.1231      22.697743     -2857.4253     -17.395556      14439.894      24.351254      24.351254      24.351254    
     48000   195.50128     -2879.9809      21.808462     -2858.1725     -619.91319      14450.704      24.35733       24.35733       24.35733     
     48500   191.81975     -2880.508       21.397782     -2859.1102     -936.01509      14456.266      24.360454      24.360454      24.360454    
     49000   195.28528     -2881.2962      21.784366     -2859.5118     -844.80973      14452.412      24.358289      24.358289      24.358289    
     49500   208.51307     -2880.5464      23.259947     -2857.2865     -216.30123      14444.775      24.353997      24.353997      24.353997    
     50000   206.84198     -2880.0651      23.073534     -2856.9916      1266.3938      14415.521      24.337546      24.337546      24.337546    
Loop time of 598.352 on 8 procs for 50000 steps with 864 atoms

Performance: 7.220 ns/day, 3.324 hours/ns, 83.563 timesteps/s, 72.198 katom-step/s
93.9% CPU use with 1 MPI tasks x 8 OpenMP threads

MPI task timing breakdown:
Section |  min time  |  avg time  |  max time  |%varavg| %total
---------------------------------------------------------------
Pair    | 520.74     | 520.74     | 520.74     |   0.0 | 87.03
Neigh   | 0          | 0          | 0          |   0.0 |  0.00
Comm    | 0.87834    | 0.87834    | 0.87834    |   0.0 |  0.15
Output  | 0.008896   | 0.008896   | 0.008896   |   0.0 |  0.00
Modify  | 76.547     | 76.547     | 76.547     |   0.0 | 12.79
Other   |            | 0.1796     |            |       |  0.03

Nlocal:            864 ave         864 max         864 min
Histogram: 1 0 0 0 0 0 0 0 0 0
Nghost:           2646 ave        2646 max        2646 min
Histogram: 1 0 0 0 0 0 0 0 0 0
Neighs:          58260 ave       58260 max       58260 min
Histogram: 1 0 0 0 0 0 0 0 0 0
FullNghs:       116520 ave      116520 max      116520 min
Histogram: 1 0 0 0 0 0 0 0 0 0

Total # of neighbors = 116520
Ave neighs/atom = 134.86111
Neighbor list builds = 0
Dangerous builds = 0

=== FINAL RESULTS: FCC at 200 K ===
Atoms: 864 | PE/atom: -3.33371682230093 eV/atom
WARNING: Detected non-ASCII characters in input. Will try to continue by replacing with ASCII equivalents where known. (src/input.cpp:479)
Volume: 14415.5212037957 …³ | Area: 592.316139028208 ²
==========================================
FCC 200 864 -3.33371682230093 14415.5212037957 24.3375458711064 24.3375458711064 24.3375458711064 592.316139028208
Simulation complete!
Total wall time: 0:13:49
