LAMMPS (10 Sep 2025)
  using 8 OpenMP thread(s) per MPI task
Loaded 1 plugins from C:\Users\harsh\Downloads\LAMMPS 64-bit 10Sep2025\plugins
using multi-threaded neighbor list subroutines
Reading data file ...
  orthogonal box = (0 0 0) to (17.182695 29.7613 28.059223)
  1 by 1 by 1 MPI processor grid
  reading atoms ...
  432 atoms
  read_data CPU = 0.019 seconds
=== STAGE 1: Energy Minimization ===
Switching to 'neigh_modify every 1 delay 0 check yes' setting during minimization
No /omp style for force computation currently active
Neighbor list info ...
  update: every = 1 steps, delay = 0 steps, check = yes
  max neighbors/atom: 4000, page size: 100000
  master list distance cutoff = 8
  ghost atom cutoff = 8
  binsize = 4, bins = 5 8 8
  2 neighbor lists, perpetual/occasional/extra = 2 0 0
  (1) pair meam, perpetual
      attributes: full, newton on, omp
      pair build: full/bin/atomonly/omp
      stencil: full/bin/3d
      bin: standard
  (2) pair meam, perpetual, half/full from (1)
      attributes: half, newton on, omp
      pair build: halffull/newton/omp
      stencil: none
      bin: none
Setting up cg style minimization ...
  Unit style    : metal
  Current step  : 0
Per MPI rank memory allocation (min/avg/max) = 19.3 | 19.3 | 19.3 Mbytes
   Step          Temp          PotEng         KinEng         TotEng         Press          Volume           Lx             Ly             Lz      
         0   0             -986.395        0             -986.395       -92731.608      14348.907      17.182695      29.7613        28.059223    
         1   0             -986.395        0             -986.395       -92731.608      14348.907      17.182695      29.7613        28.059223    
Loop time of 0.01362 on 8 procs for 1 steps with 432 atoms

114.7% CPU use with 1 MPI tasks x 8 OpenMP threads

Minimization stats:
  Stopping criterion = linesearch alpha is zero
  Energy initial, next-to-last, final = 
     -986.394996720557  -986.394996720557  -986.394996720557
  Force two-norm initial, final = 3.1452791e-07 3.1452791e-07
  Force max component initial, final = 1.6157845e-08 1.6157845e-08
  Final line search alpha, max atom move = 0.5 8.0789224e-09
  Iterations, force evaluations = 1 2

MPI task timing breakdown:
Section |  min time  |  avg time  |  max time  |%varavg| %total
---------------------------------------------------------------
Pair    | 0.012768   | 0.012768   | 0.012768   |   0.0 | 93.74
Neigh   | 0          | 0          | 0          |   0.0 |  0.00
Comm    | 4e-05      | 4e-05      | 4e-05      |   0.0 |  0.29
Output  | 0          | 0          | 0          |   0.0 |  0.00
Modify  | 0.000638   | 0.000638   | 0.000638   |   0.0 |  4.68
Other   |            | 0.000174   |            |       |  1.28

Nlocal:            432 ave         432 max         432 min
Histogram: 1 0 0 0 0 0 0 0 0 0
Nghost:           1659 ave        1659 max        1659 min
Histogram: 1 0 0 0 0 0 0 0 0 0
Neighs:          16416 ave       16416 max       16416 min
Histogram: 1 0 0 0 0 0 0 0 0 0
FullNghs:        32832 ave       32832 max       32832 min
Histogram: 1 0 0 0 0 0 0 0 0 0

Total # of neighbors = 32832
Ave neighs/atom = 76
Neighbor list builds = 0
Dangerous builds = 0
Minimized PE/atom: -2.28332175166796 eV/atom
=== STAGE 2: NPT Equilibration at 400 K ===
No /omp style for force computation currently active
Setting up Verlet run ...
  Unit style    : metal
  Current step  : 0
  Time step     : 0.002
Per MPI rank memory allocation (min/avg/max) = 18.17 | 18.17 | 18.17 Mbytes
   Step          Temp          PotEng         KinEng         TotEng         Press          Volume           Lx             Ly             Lz      
         0   400           -986.395        22.284449     -964.11055     -91072.777      14348.907      17.182695      29.7613        28.059223    
       500   555.03966     -1358.1937      30.921882     -1327.2718     -5152.5664      8424.6169      14.388043      24.920821      23.495576    
      1000   411.81003     -1384.8125      22.942399     -1361.8701      1536.537       7902.0938      14.084207      24.394562      22.999414    
      1500   363.01464     -1388.7316      20.223953     -1368.5077      55.001208      7753.6567      13.99546       24.240849      22.854491    
      2000   399.97442     -1389.1101      22.283024     -1366.8271     -2428.2291      7720.4486      13.975451      24.206192      22.821817    
      2500   398.50956     -1392.294       22.201415     -1370.0926     -399.04277      7570.8154      13.884574      24.048787      22.673414    
      3000   389.19532     -1397.0459      21.682508     -1375.3633     -465.30391      7470.3251      13.822868      23.94191       22.572649    
      3500   403.49875     -1398.0338      22.479368     -1375.5544     -456.99896      7433.5657      13.800158      23.902575      22.535564    
      4000   428.2934      -1396.2355      23.860706     -1372.3748     -2908.9408      7483.1452      13.830771      23.955598      22.585555    
      4500   395.24868     -1397.2255      22.019748     -1375.2058      1429.1077      7420.9469      13.792345      23.889042      22.522805    
      5000   376.39148     -1398.262       20.969192     -1377.2928     -1312.9567      7443.9224      13.806564      23.913671      22.546025    
      5500   393.97584     -1398.3003      21.948836     -1376.3515      2034.006       7402.8342      13.781115      23.869591      22.504466    
      6000   428.14386     -1398.9485      23.852375     -1375.0962     -2417.8851      7445.8083      13.80773       23.91569       22.547929    
      6500   404.9533      -1398.9725      22.560403     -1376.4121      2184.534       7374.5872      13.763564      23.839192      22.475806    
      7000   409.42474     -1399.4351      22.809512     -1376.6256     -1923.9303      7416.1739      13.789387      23.883919      22.517975    
      7500   432.14092     -1400.2706      24.075055     -1376.1955      2042.8045      7297.9592      13.715726      23.756335      22.397687    
      8000   391.15491     -1399.3954      21.791679     -1377.6037      2165.2615      7319.7252      13.729348      23.779929      22.419932    
      8500   401.65288     -1400.6858      22.376533     -1378.3093      572.96635      7337.9341      13.740724      23.799631      22.438508    
      9000   407.13322     -1398.9316      22.681848     -1376.2497      2725.8528      7339.6514      13.741795      23.801488      22.440258    
      9500   406.39404     -1401.2648      22.640668     -1378.6241     -2700.5755      7417.9571      13.790492      23.885834      22.51978     
     10000   391.9178      -1400.991       21.834181     -1379.1568      1643.2751      7372.4153      13.762213      23.836852      22.473599    
     10500   394.82652     -1400.7221      21.996229     -1378.7258      1818.5586      7292.0852      13.712046      23.74996       22.391677    
     11000   397.70514     -1400.124       22.1566       -1377.9674     -3498.2654      7397.1246      13.777571      23.863452      22.498679    
     11500   446.51883     -1399.9229      24.876065     -1375.0468     -3060.6267      7398.367       13.778342      23.864788      22.499938    
     12000   385.40292     -1399.2116      21.471229     -1377.7404      2921.4288      7338.415       13.741024      23.800151      22.438998    
     12500   378.27536     -1399.36        21.074145     -1378.2859      2972.3633      7390.9851      13.773758      23.856848      22.492452    
     13000   393.94207     -1401.058       21.946955     -1379.111      -125.53528      7412.3415      13.787012      23.879805      22.514096    
     13500   393.80118     -1400.9079      21.939106     -1378.9688     -1253.3866      7350.4225      13.748514      23.813125      22.45123     
     14000   422.23876     -1400.2184      23.523396     -1376.695       151.6157       7395.9306      13.776829      23.862168      22.497468    
     14500   409.66017     -1398.7757      22.822628     -1375.9531     -3462.082       7485.3658      13.832139      23.957968      22.587788    
     15000   396.9496      -1398.8465      22.114508     -1376.732       3143.0464      7363.9621      13.756951      23.827738      22.465007    
     15500   384.69856     -1399.4721      21.431989     -1378.0401      626.28268      7418.2411      13.790668      23.886138      22.520067    
     16000   391.84341     -1400.0626      21.830036     -1378.2326      481.50838      7396.9118      13.777439      23.863223      22.498463    
     16500   398.97964     -1399.0778      22.227603     -1376.8502     -290.6038       7432.3199      13.799387      23.90124       22.534305    
     17000   389.86406     -1398.7372      21.719764     -1377.0175      98.912706      7418.8265      13.791031      23.886767      22.52066     
     17500   415.23104     -1400.2         23.132988     -1377.067       1498.6016      7394.6722      13.776048      23.860815      22.496192    
     18000   370.99434     -1401.6409      20.668511     -1380.9724     -3612.7191      7434.8601      13.800959      23.903962      22.536872    
     18500   433.16848     -1400.797       24.132303     -1376.6647      4645.7266      7369.3606      13.760312      23.833559      22.470495    
     19000   400.54724     -1400.2838      22.314936     -1377.9688     -707.04872      7397.5088      13.777809      23.863866      22.499068    
     19500   393.08917     -1398.4519      21.899439     -1376.5525     -1334.7731      7436.2764      13.801835      23.90548       22.538303    
     20000   403.0123      -1399.3677      22.452267     -1376.9155      2501.497       7360.8308      13.755001      23.82436       22.461822    
Loop time of 154.248 on 8 procs for 20000 steps with 432 atoms

Performance: 22.406 ns/day, 1.071 hours/ns, 129.662 timesteps/s, 56.014 katom-step/s
94.4% CPU use with 1 MPI tasks x 8 OpenMP threads

MPI task timing breakdown:
Section |  min time  |  avg time  |  max time  |%varavg| %total
---------------------------------------------------------------
Pair    | 126.6      | 126.6      | 126.6      |   0.0 | 82.08
Neigh   | 0.040656   | 0.040656   | 0.040656   |   0.0 |  0.03
Comm    | 0.29201    | 0.29201    | 0.29201    |   0.0 |  0.19
Output  | 0.003758   | 0.003758   | 0.003758   |   0.0 |  0.00
Modify  | 27.247     | 27.247     | 27.247     |   0.0 | 17.66
Other   |            | 0.06009    |            |       |  0.04

Nlocal:            432 ave         432 max         432 min
Histogram: 1 0 0 0 0 0 0 0 0 0
Nghost:           2276 ave        2276 max        2276 min
Histogram: 1 0 0 0 0 0 0 0 0 0
Neighs:          27004 ave       27004 max       27004 min
Histogram: 1 0 0 0 0 0 0 0 0 0
FullNghs:        54008 ave       54008 max       54008 min
Histogram: 1 0 0 0 0 0 0 0 0 0

Total # of neighbors = 54008
Ave neighs/atom = 125.01852
Neighbor list builds = 53
Dangerous builds = 0
=== STAGE 3: NPT Production at 400 K ===
No /omp style for force computation currently active
Setting up Verlet run ...
  Unit style    : metal
  Current step  : 0
  Time step     : 0.001
Per MPI rank memory allocation (min/avg/max) = 18.42 | 18.42 | 18.42 Mbytes
   Step          Temp          PotEng         KinEng         TotEng         Press          Volume           Lx             Ly             Lz      
         0   403.0123      -1399.3677      22.452267     -1376.9155      2501.497       7360.8308      13.755001      23.82436       22.461822    
       500   385.17692     -1400.5033      21.458638     -1379.0447      2725.3826      7338.4728      13.74106       23.800214      22.439057    
      1000   423.47543     -1400.2752      23.592291     -1376.6829     -990.22333      7400.9302      13.779933      23.867544      22.502536    
      1500   421.9373      -1401.238       23.506601     -1377.7314     -2041.3674      7394.6654      13.776044      23.860808      22.496185    
      2000   414.27638     -1403.0644      23.079802     -1379.9846      308.61185      7361.3921      13.75535       23.824966      22.462393    
      2500   417.20893     -1401.6357      23.243178     -1378.3925      154.82792      7367.1921      13.758962      23.831221      22.468291    
      3000   411.21312     -1403.3989      22.909145     -1380.4897     -1260.1931      7365.6898      13.758027      23.829601      22.466763    
      3500   388.16452     -1402.7638      21.625081     -1381.1388      4806.739       7292.032       13.712012      23.749902      22.391622    
      4000   409.89651     -1402.382       22.835795     -1379.5462      596.75253      7325.6963      13.733081      23.786393      22.426027    
      4500   399.7397      -1402.948       22.269947     -1380.678       445.19275      7307.3007      13.721576      23.766467      22.40724     
      5000   407.8596      -1401.0282      22.722316     -1378.3059      1995.1973      7340.3967      13.742261      23.802294      22.441018    
      5500   404.78385     -1399.4357      22.550963     -1376.8847     -3944.675       7425.9664      13.795454      23.894427      22.527882    
      6000   388.30215     -1402.3427      21.632749     -1380.7099     -4486.024       7422.5609      13.793345      23.890774      22.524438    
      6500   393.92466     -1402.3128      21.945985     -1380.3668      164.42786      7370.0568      13.760745      23.834309      22.471202    
      7000   431.46777     -1401.5636      24.037554     -1377.526       273.54267      7371.4626      13.76162       23.835825      22.472631    
      7500   406.41413     -1400.647       22.641788     -1378.0052     -3636.1399      7420.2084      13.791887      23.88825       22.522058    
      8000   380.60609     -1401.1439      21.203993     -1379.94       -950.92066      7386.8571      13.771193      23.852406      22.488264    
      8500   414.03167     -1401.8279      23.066169     -1378.7618     -675.54842      7417.8717      13.790439      23.885742      22.519693    
      9000   404.12238     -1400.3927      22.514112     -1377.8786     -2055.4169      7374.5337      13.763531      23.839135      22.475752    
      9500   414.7767      -1399.9742      23.107675     -1376.8665     -2847.4901      7434.1084      13.800494      23.903157      22.536112    
     10000   391.03708     -1401.2828      21.785115     -1379.4977      2274.3519      7338.3012      13.740953      23.800028      22.438882    
     10500   397.85727     -1402.1822      22.165075     -1380.0171     -3814.1845      7474.2893      13.825313      23.946144      22.576641    
     11000   384.22323     -1401.3066      21.405507     -1379.9011      2741.2831      7341.9375      13.743222      23.803959      22.442588    
     11500   409.72583     -1400.502       22.826286     -1377.6757     -742.66363      7428.9947      13.797329      23.897675      22.530944    
     12000   407.39729     -1400.8525      22.69656      -1378.156      -3140.3561      7444.3542      13.806831      23.914133      22.546461    
     12500   385.73814     -1400.3536      21.489905     -1378.8637     -2555.7541      7411.529       13.786508      23.878932      22.513273    
     13000   402.86941     -1400.9031      22.444307     -1378.4587      989.26289      7369.3232      13.760288      23.833519      22.470457    
     13500   391.71204     -1402.0993      21.822717     -1380.2766      431.03043      7337.9049      13.740705      23.7996        22.438478    
     14000   380.48383     -1400.1789      21.197181     -1378.9817      1789.8134      7365.032       13.757617      23.828892      22.466095    
     14500   414.64547     -1402.5796      23.100364     -1379.4793     -1325.5783      7409.7025      13.785375      23.87697       22.511424    
     15000   391.34306     -1403.0517      21.802161     -1381.2496      821.62926      7326.1856      13.733386      23.786923      22.426526    
     15500   402.59296     -1402.1587      22.428906     -1379.7298      1152.1986      7385.2795      13.770213      23.850708      22.486663    
     16000   409.69624     -1401.1995      22.824637     -1378.3749     -2480.6036      7424.2677      13.794402      23.892605      22.526164    
     16500   412.64583     -1403.6685      22.988962     -1380.6795      1333.5862      7351.2749      13.749046      23.814046      22.452098    
     17000   416.39185     -1400.9503      23.197657     -1377.7527     -754.93039      7378.6078      13.766065      23.843524      22.47989     
     17500   389.8648      -1401.8557      21.719805     -1380.1359     -843.30937      7390.7237      13.773596      23.856567      22.492187    
     18000   408.87044     -1402.7361      22.778631     -1379.9574      1151.6697      7342.0402      13.743286      23.80407       22.442692    
     18500   402.80069     -1403.52        22.440478     -1381.0795      1482.381       7349.966       13.74823       23.812632      22.450765    
     19000   393.03738     -1402.9956      21.896554     -1381.099      -1022.3665      7354.2335      13.75089       23.81724       22.455109    
     19500   414.29401     -1402.6234      23.080784     -1379.5426     -150.12784      7333.3289      13.737849      23.794652      22.433813    
     20000   426.32512     -1403.9012      23.751051     -1380.1502     -1610.1675      7340.3426      13.742227      23.802235      22.440962    
     20500   412.98827     -1402.7892      23.00804      -1379.7812      881.40214      7333.9272      13.738222      23.795299      22.434423    
     21000   388.96519     -1402.6359      21.669687     -1380.9662     -1901.1298      7409.103       13.785003      23.876326      22.510816    
     21500   393.52232     -1403.496       21.92357      -1381.5724     -1217.0436      7358.4729      13.753532      23.821816      22.459423    
     22000   391.77339     -1401.9162      21.826135     -1380.09       -3430.4409      7397.6731      13.777911      23.864042      22.499235    
     22500   413.10859     -1401.2203      23.014744     -1378.2055     -854.02841      7354.5858      13.75111       23.81762       22.455468    
     23000   410.86313     -1402.8977      22.889646     -1380.0081     -2211.4134      7413.3131      13.787614      23.880848      22.515079    
     23500   394.0734      -1402.8069      21.954271     -1380.8526     -3070.1658      7416.6236      13.789666      23.884402      22.51843     
     24000   393.15567     -1404.2289      21.903144     -1382.3258      553.14049      7343.5617      13.744235      23.805714      22.444242    
     24500   418.37946     -1403.8252      23.308389     -1380.5168     -512.61974      7393.2272      13.77515       23.859261      22.494727    
     25000   414.03576     -1401.9082      23.066397     -1378.8418     -5243.5097      7415.381       13.788896      23.883068      22.517173    
     25500   422.11254     -1404.2974      23.516364     -1380.781      -3978.167       7403.0686      13.78126       23.869843      22.504703    
     26000   396.37275     -1402.8965      22.082371     -1380.8141     -1727.6226      7393.5315      13.77534       23.859588      22.495035    
     26500   385.78938     -1403.8706      21.492759     -1382.3778     -139.41682      7339.0203      13.741402      23.800806      22.439615    
     27000   378.64046     -1403.1731      21.094485     -1382.0786     -1633.6969      7367.7576      13.759314      23.831831      22.468865    
     27500   381.56773     -1401.8535      21.257566     -1380.596       3075.3416      7340.1612      13.742114      23.802039      22.440778    
     28000   425.48365     -1403.6287      23.704172     -1379.9245      1271.9928      7338.5282      13.741094      23.800274      22.439113    
     28500   388.4936      -1402.9929      21.643414     -1381.3495      1639.8627      7365.0112      13.757604      23.828869      22.466073    
     29000   384.35547     -1405.5742      21.412875     -1384.1614      822.3103       7331.5857      13.73676       23.792766      22.432035    
     29500   415.38184     -1402.5983      23.141388     -1379.457       1710.0455      7319.1814      13.729008      23.77934       22.419377    
     30000   396.02324     -1401.1472      22.062899     -1379.0843     -928.07889      7347.0237      13.746395      23.809454      22.447769    
     30500   412.31175     -1404.1617      22.97035      -1381.1914     -1404.2887      7366.2745      13.758391      23.830232      22.467358    
     31000   419.52162     -1404.1769      23.37202      -1380.8049     -4436.2258      7439.4493      13.803798      23.90888       22.541508    
     31500   387.26386     -1403.0067      21.574904     -1381.4318      517.42001      7346.0582      13.745793      23.808411      22.446785    
     32000   379.32628     -1403.2952      21.132693     -1382.1625      3902.9094      7299.6256      13.71677       23.758143      22.399392    
     32500   389.65704     -1402.4371      21.708231     -1380.7289     -1227.6618      7357.3894      13.752857      23.820646      22.458321    
     33000   408.97868     -1402.1926      22.784661     -1379.4079     -3048.1624      7413.1853      13.787535      23.880711      22.51495     
     33500   410.9452      -1402.4113      22.894219     -1379.5171      3504.6534      7358.6939      13.753669      23.822054      22.459648    
     34000   383.58088     -1402.5508      21.369721     -1381.1811      2149.8822      7338.7605      13.741239      23.800525      22.43935     
     34500   409.45322     -1402.5207      22.811098     -1379.7096      2252.1802      7330.9596      13.736369      23.792089      22.431396    
     35000   386.25691     -1403.4126      21.518806     -1381.8938      1342.417       7354.7129      13.751189      23.817758      22.455597    
     35500   403.83005     -1403.3154      22.497826     -1380.8176      414.97332      7352.9691      13.750102      23.815875      22.453822    
     36000   403.45381     -1404.5223      22.476864     -1382.0454      2342.6645      7300.6954      13.71744       23.759304      22.400486    
     36500   375.94279     -1404.535       20.944195     -1383.5908     -3409.4256      7385.5562      13.770385      23.851006      22.486944    
     37000   413.28721     -1402.9423      23.024694     -1379.9176      3081.6378      7295.5843      13.714238      23.753758      22.395258    
     37500   391.26902     -1403.4454      21.798036     -1381.6474      3267.1294      7309.789       13.723133      23.769164      22.409783    
     38000   399.11815     -1402.6156      22.23532      -1380.3803     -1336.378       7393.3096      13.775202      23.859349      22.49481     
     38500   399.19564     -1402.8601      22.239637     -1380.6204     -1315.9034      7388.8172      13.772411      23.854516      22.490253    
     39000   395.56683     -1404.8653      22.037472     -1382.8278      1204.7453      7332.542       13.737357      23.793801      22.43301     
     39500   397.59808     -1402.4527      22.150635     -1380.3021      1466.6621      7350.0904      13.748307      23.812767      22.450892    
     40000   413.17117     -1402.0657      23.01823      -1379.0475     -2012.9764      7428.6207      13.797097      23.897274      22.530566    
     40500   384.68351     -1403.4422      21.43115      -1382.0111     -183.30332      7368.9168      13.760035      23.833081      22.470044    
     41000   416.04085     -1403.8558      23.178103     -1380.6777     -2437.5263      7378.6087      13.766065      23.843525      22.479891    
     41500   418.63082     -1402.5563      23.322393     -1379.2339     -160.25059      7372.2906      13.762135      23.836717      22.473473    
     42000   406.75987     -1401.9833      22.661049     -1379.3223     -1.1950685      7382.6958      13.768607      23.847926      22.484041    
     42500   397.43234     -1402.6275      22.141402     -1380.4861      1763.1134      7321.9607      13.730746      23.78235       22.422214    
     43000   390.12141     -1404.3624      21.734102     -1382.6283      564.3625       7342.8874      13.743815      23.804985      22.443555    
     43500   408.54897     -1404.4186      22.760722     -1381.6579      1072.4699      7318.3779      13.728506      23.77847       22.418556    
     44000   398.34354     -1401.8998      22.192166     -1379.7076      1356.1416      7352.3948      13.749744      23.815255      22.453238    
     44500   391.90579     -1402.1633      21.833512     -1380.3297     -4163.3307      7458.6424      13.815659      23.929423      22.560876    
     45000   423.29896     -1404.2798      23.58246      -1380.6973     -1954.1292      7392.4823      13.774688      23.858459      22.493971    
     45500   399.18424     -1404.0437      22.239002     -1381.8047      2791.3792      7321.5583      13.730494      23.781914      22.421804    
     46000   396.99964     -1402.6027      22.117296     -1380.4854      2155.4305      7360.5064      13.754799      23.82401       22.461492    
     46500   382.94692     -1402.436       21.334403     -1381.1016      4399.0606      7289.1713      13.710219      23.746796      22.388694    
     47000   395.50977     -1404.9129      22.034293     -1382.8786     -2509.217       7375.364       13.764047      23.840029      22.476595    
     47500   404.36656     -1403.1811      22.527715     -1380.6534     -2018.0976      7368.9005      13.760025      23.833063      22.470027    
     48000   391.80487     -1401.8646      21.827889     -1380.0367      2599.0953      7354.8758      13.75129       23.817933      22.455763    
     48500   424.06029     -1401.6267      23.624875     -1378.0018      371.4925       7366.6099      13.758599      23.830593      22.467699    
     49000   396.62121     -1403.5062      22.096213     -1381.41       -546.50016      7352.856       13.750031      23.815753      22.453707    
     49500   384.08392     -1403.163       21.397746     -1381.7653     -1486.8538      7365.5284      13.757926      23.829427      22.466599    
     50000   418.86069     -1404.0699      23.335199     -1380.7348      903.96267      7325.0132      13.732654      23.785654      22.42533     
Loop time of 393.649 on 8 procs for 50000 steps with 432 atoms

Performance: 10.974 ns/day, 2.187 hours/ns, 127.017 timesteps/s, 54.871 katom-step/s
94.0% CPU use with 1 MPI tasks x 8 OpenMP threads

MPI task timing breakdown:
Section |  min time  |  avg time  |  max time  |%varavg| %total
---------------------------------------------------------------
Pair    | 324.28     | 324.28     | 324.28     |   0.0 | 82.38
Neigh   | 0.030811   | 0.030811   | 0.030811   |   0.0 |  0.01
Comm    | 0.72634    | 0.72634    | 0.72634    |   0.0 |  0.18
Output  | 0.008778   | 0.008778   | 0.008778   |   0.0 |  0.00
Modify  | 68.458     | 68.458     | 68.458     |   0.0 | 17.39
Other   |            | 0.1409     |            |       |  0.04

Nlocal:            432 ave         432 max         432 min
Histogram: 1 0 0 0 0 0 0 0 0 0
Nghost:           2248 ave        2248 max        2248 min
Histogram: 1 0 0 0 0 0 0 0 0 0
Neighs:          26982 ave       26982 max       26982 min
Histogram: 1 0 0 0 0 0 0 0 0 0
FullNghs:        53964 ave       53964 max       53964 min
Histogram: 1 0 0 0 0 0 0 0 0 0

Total # of neighbors = 53964
Ave neighs/atom = 124.91667
Neighbor list builds = 38
Dangerous builds = 0

=== FINAL RESULTS: HCP at 400 K ===
Atoms: 432 | PE/atom: -3.24835172859906 eV/atom
WARNING: Detected non-ASCII characters in input. Will try to continue by replacing with ASCII equivalents where known. (src/input.cpp:479)
Volume: 7325.01322406948 …³ | Area: 326.640155544141 ²
==========================================
HCP 400 432 -3.24835172859906 7325.01322406948 13.7326538488002 23.7856541889519 22.4253298308253 326.640155544141
Simulation complete!
Total wall time: 0:09:07
