LAMMPS (10 Sep 2025)
  using 8 OpenMP thread(s) per MPI task
Loaded 1 plugins from C:\Users\J.Shiva\AppData\Local\LAMMPS 64-bit 10Sep2025\plugins
using multi-threaded neighbor list subroutines
Reading data file ...
  orthogonal box = (0 0 0) to (15.665951 27.134223 25.58239)
  1 by 1 by 1 MPI processor grid
  reading atoms ...
  432 atoms
  read_data CPU = 0.006 seconds
=== STAGE 1: Energy Minimization ===
Switching to 'neigh_modify every 1 delay 0 check yes' setting during minimization
No /omp style for force computation currently active
Neighbor list info ...
  update: every = 1 steps, delay = 0 steps, check = yes
  max neighbors/atom: 4000, page size: 100000
  master list distance cutoff = 8
  ghost atom cutoff = 8
  binsize = 4, bins = 4 7 7
  2 neighbor lists, perpetual/occasional/extra = 2 0 0
  (1) pair meam, perpetual
      attributes: full, newton on, omp
      pair build: full/bin/atomonly/omp
      stencil: full/bin/3d
      bin: standard
  (2) pair meam, perpetual, half/full from (1)
      attributes: half, newton on, omp
      pair build: halffull/newton/omp
      stencil: none
      bin: none
Setting up cg style minimization ...
  Unit style    : metal
  Current step  : 0
Per MPI rank memory allocation (min/avg/max) = 19.35 | 19.35 | 19.35 Mbytes
   Step          Temp          PotEng         KinEng         TotEng         Press          Volume           Lx             Ly             Lz      
         0   0             -1202.8829      0             -1202.8829     -64729.562      10874.649      15.665951      27.134223      25.58239     
       228   0             -1573.7972      0             -1573.7972     -53957.972      10874.649      15.665951      27.134223      25.58239     
Loop time of 2.1925 on 8 procs for 228 steps with 432 atoms

89.8% CPU use with 1 MPI tasks x 8 OpenMP threads

Minimization stats:
  Stopping criterion = energy tolerance
  Energy initial, next-to-last, final = 
     -1202.88293886332  -1573.79609818111  -1573.79715862274
  Force two-norm initial, final = 47.567496 19.834293
  Force max component initial, final = 6.7220095 5.4453637
  Final line search alpha, max atom move = 0.0010151757 0.005528001
  Iterations, force evaluations = 228 593

MPI task timing breakdown:
Section |  min time  |  avg time  |  max time  |%varavg| %total
---------------------------------------------------------------
Pair    | 2.02       | 2.02       | 2.02       |   0.0 | 92.13
Neigh   | 0.005089   | 0.005089   | 0.005089   |   0.0 |  0.23
Comm    | 0.003683   | 0.003683   | 0.003683   |   0.0 |  0.17
Output  | 0          | 0          | 0          |   0.0 |  0.00
Modify  | 0.15685    | 0.15685    | 0.15685    |   0.0 |  7.15
Other   |            | 0.006836   |            |       |  0.31

Nlocal:            432 ave         432 max         432 min
Histogram: 1 0 0 0 0 0 0 0 0 0
Nghost:           1815 ave        1815 max        1815 min
Histogram: 1 0 0 0 0 0 0 0 0 0
Neighs:          18295 ave       18295 max       18295 min
Histogram: 1 0 0 0 0 0 0 0 0 0
FullNghs:        36590 ave       36590 max       36590 min
Histogram: 1 0 0 0 0 0 0 0 0 0

Total # of neighbors = 36590
Ave neighs/atom = 84.699074
Neighbor list builds = 7
Dangerous builds = 0
Minimized PE/atom: -3.64304897829338 eV/atom
=== STAGE 2: NPT Equilibration at 200 K ===
No /omp style for force computation currently active
Setting up Verlet run ...
  Unit style    : metal
  Current step  : 0
  Time step     : 0.002
Per MPI rank memory allocation (min/avg/max) = 18.24 | 18.24 | 18.24 Mbytes
   Step          Temp          PotEng         KinEng         TotEng         Press          Volume           Lx             Ly             Lz      
         0   200           -1573.7972      11.142224     -1562.6549     -52863.572      10874.649      15.665951      27.134223      25.58239     
       500   625.21808     -1829.8162      34.831601     -1794.9846     -7146.4435      5875.9341      12.759803      22.100627      20.836671    
      1000   240.69266     -1915.5127      13.409258     -1902.1034     -916.88244      5376.1726      12.387283      21.455404      20.228349    
      1500   236.70349     -1923.7196      13.187017     -1910.5326     -1560.4792      5358.0147      12.373322      21.431222      20.20555     
      2000   187.25596     -1933.4429      10.43224      -1923.0107     -1462.666       5308.9938      12.335471      21.365663      20.14374     
      2500   180.07191     -1934.6739      10.032008     -1924.6419      81.16027       5304.6337      12.332093      21.359812      20.138224    
      3000   192.17831     -1934.723       10.70647      -1924.0166     -35.858666      5305.1442      12.332489      21.360497      20.13887     
      3500   222.21241     -1934.6339      12.379703     -1922.2542      1539.9937      5300.9058      12.329204      21.354807      20.133505    
      4000   209.26218     -1935.2194      11.658231     -1923.5612     -4028.0794      5318.3004      12.342675      21.37814       20.155504    
      4500   184.67071     -1938.4754      10.288213     -1928.1872      840.34113      5297.7524      12.326758      21.350572      20.129512    
      5000   189.76287     -1938.1771      10.571902     -1927.6052      3164.7873      5290.0434      12.320776      21.340211      20.119744    
      5500   217.72039     -1937.6236      12.129447     -1925.4941     -873.9135       5303.8571      12.331491      21.35877       20.137241    
      6000   211.55941     -1937.2331      11.786212     -1925.4469      1688.5219      5297.3353      12.326435      21.350012      20.128984    
      6500   195.60122     -1938.2443      10.897164     -1927.3471      1823.4202      5286.6669      12.318155      21.33567       20.115462    
      7000   182.3191      -1938.4668      10.157202     -1928.3096     -1794.7996      5299.5458      12.328149      21.352981      20.131783    
      7500   193.48132     -1937.7751      10.779062     -1926.996       1607.9597      5294.2916      12.324074      21.345922      20.125128    
      8000   209.7147      -1937.9675      11.683441     -1926.284      -1260.0466      5295.3898      12.324926      21.347398      20.12652     
      8500   211.5069      -1938.3226      11.783287     -1926.5393     -1210.1611      5290.5072      12.321137      21.340835      20.120332    
      9000   196.34027     -1938.6531      10.938337     -1927.7147     -541.20582      5285.6912      12.317397      21.334357      20.114225    
      9500   191.42864     -1938.9703      10.664704     -1928.3056      34.670665      5289.3735      12.320256      21.33931       20.118895    
     10000   212.50147     -1939.6792      11.838696     -1927.8405     -570.70469      5290.8365      12.321392      21.341277      20.120749    
     10500   223.28262     -1940.91        12.439325     -1928.4707      2917.2044      5273.2111      12.307695      21.317553      20.098382    
     11000   203.4748      -1941.4412      11.335809     -1930.1054      1657.491       5279.7885      12.31281       21.326413      20.106735    
     11500   196.55451     -1943.4358      10.950272     -1932.4855     -3824.0385      5295.5886      12.32508       21.347665      20.126771    
     12000   193.80589     -1942.9266      10.797144     -1932.1295      4106.2144      5266.8741      12.302763      21.30901       20.090327    
     12500   207.75398     -1942.2284      11.574208     -1930.6542      248.28544      5276.0342      12.309891      21.321356      20.101968    
     13000   213.55615     -1942.8867      11.897453     -1930.9893      192.30501      5274.7516      12.308893      21.319629      20.100339    
     13500   193.75563     -1943.4038      10.794344     -1932.6095     -2938.5121      5281.5395      12.314171      21.32877       20.108957    
     14000   181.43571     -1943.288       10.107987     -1933.18       -1954.6979      5283.4278      12.315638      21.331311      20.111353    
     14500   201.8812      -1943.5795      11.247029     -1932.3325     -894.50415      5279.6084      12.31267       21.32617       20.106506    
     15000   204.78897     -1943.259       11.409023     -1931.85       -2108.1297      5287.4523      12.318765      21.336726      20.116458    
     15500   196.44703     -1944.624       10.944285     -1933.6798     -1958.2465      5285.312       12.317102      21.333847      20.113744    
     16000   188.00288     -1944.2333      10.473852     -1933.7594      2399.4047      5264.6126      12.301002      21.30596       20.087452    
     16500   202.97501     -1943.7376      11.307966     -1932.4296      3863.3789      5260.7161      12.297966      21.300702      20.082495    
     17000   198.92432     -1943.3459      11.082297     -1932.2636     -83.17556       5279.3356      12.312458      21.325803      20.10616     
     17500   205.30473     -1945.4846      11.437757     -1934.0469     -4588.3161      5283.9051      12.316009      21.331954      20.111959    
     18000   197.21851     -1944.7894      10.987264     -1933.8021      2312.6944      5256.6647      12.294808      21.295233      20.077338    
     18500   196.78543     -1946.0629      10.963137     -1935.0998      4134.4675      5250.5116      12.290009      21.28692       20.069501    
     19000   196.46723     -1946.5969      10.94541      -1935.6515     -3563.2554      5282.4682      12.314893      21.33002       20.110136    
     19500   196.13208     -1947.2557      10.926739     -1936.3289      3043.7502      5247.8942      12.287967      21.283383      20.066166    
     20000   185.29498     -1946.6467      10.322991     -1936.3237      2770.3817      5258.6618      12.296365      21.297929      20.07988     
Loop time of 178.948 on 8 procs for 20000 steps with 432 atoms

Performance: 19.313 ns/day, 1.243 hours/ns, 111.765 timesteps/s, 48.282 katom-step/s
88.4% CPU use with 1 MPI tasks x 8 OpenMP threads

MPI task timing breakdown:
Section |  min time  |  avg time  |  max time  |%varavg| %total
---------------------------------------------------------------
Pair    | 156.09     | 156.09     | 156.09     |   0.0 | 87.23
Neigh   | 0.015404   | 0.015404   | 0.015404   |   0.0 |  0.01
Comm    | 0.16098    | 0.16098    | 0.16098    |   0.0 |  0.09
Output  | 0.002975   | 0.002975   | 0.002975   |   0.0 |  0.00
Modify  | 22.646     | 22.646     | 22.646     |   0.0 | 12.66
Other   |            | 0.02934    |            |       |  0.02

Nlocal:            432 ave         432 max         432 min
Histogram: 1 0 0 0 0 0 0 0 0 0
Nghost:           2702 ave        2702 max        2702 min
Histogram: 1 0 0 0 0 0 0 0 0 0
Neighs:          37359 ave       37359 max       37359 min
Histogram: 1 0 0 0 0 0 0 0 0 0
FullNghs:        74718 ave       74718 max       74718 min
Histogram: 1 0 0 0 0 0 0 0 0 0

Total # of neighbors = 74718
Ave neighs/atom = 172.95833
Neighbor list builds = 18
Dangerous builds = 0
=== STAGE 3: NPT Production at 200 K ===
No /omp style for force computation currently active
Setting up Verlet run ...
  Unit style    : metal
  Current step  : 0
  Time step     : 0.001
Per MPI rank memory allocation (min/avg/max) = 18.89 | 18.89 | 18.89 Mbytes
   Step          Temp          PotEng         KinEng         TotEng         Press          Volume           Lx             Ly             Lz      
         0   185.29498     -1946.6467      10.322991     -1936.3237      2770.3817      5258.6618      12.296365      21.297929      20.07988     
       500   191.32586     -1946.2846      10.658979     -1935.6256     -2228.3325      5273.151       12.307648      21.317472      20.098305    
      1000   193.31566     -1946.5562      10.769832     -1935.7864     -2955.5394      5272.0506      12.306792      21.315989      20.096907    
      1500   204.50529     -1948.3173      11.393219     -1936.9241     -1787.5093      5282.0514      12.314569      21.329459      20.109607    
      2000   193.59365     -1947.4495      10.78532      -1936.6642      3724.3953      5247.8961      12.287968      21.283385      20.066168    
      2500   207.90939     -1947.3832      11.582865     -1935.8004      2302.261       5260.191       12.297557      21.299993      20.081826    
      3000   207.15027     -1947.5016      11.540574     -1935.961      -1805.4114      5274.6178      12.308789      21.319448      20.100169    
      3500   197.47902     -1947.7875      11.001778     -1936.7857      2829.9415      5260.0922      12.29748       21.29986       20.081701    
      4000   203.59805     -1948.2897      11.342676     -1936.947      -2003.7384      5283.0976      12.315382      21.330867      20.110934    
      4500   208.36917     -1947.8661      11.60848      -1936.2576      2935.9312      5258.3902      12.296153      21.297562      20.079534    
      5000   205.78126     -1948.3898      11.464305     -1936.9255     -1548.7558      5267.2638      12.303066      21.309536      20.090823    
      5500   210.42595     -1947.5917      11.723066     -1935.8686      4530.1931      5245.1425      12.285819      21.279662      20.062658    
      6000   200.22491     -1947.1132      11.154754     -1935.9584     -4059.5431      5277.6048      12.311112      21.323472      20.103962    
      6500   206.22143     -1947.7756      11.488827     -1936.2867      1902.2955      5260.2897      12.297634      21.300127      20.081952    
      7000   202.11309     -1948.1317      11.259947     -1936.8718      65.693888      5262.4135      12.299289      21.302993      20.084654    
      7500   205.77704     -1948.3788      11.46407      -1936.9147     -3571.7349      5277.186       12.310787      21.322908      20.10343     
      8000   206.54136     -1948.592       11.506651     -1937.0853      2673.9057      5256.1852      12.294434      21.294585      20.076727    
      8500   205.75366     -1949.4656      11.462767     -1938.0028      3161.8976      5250.7855      12.290223      21.287291      20.06985     
      9000   195.4961      -1949.4076      10.891307     -1938.5163     -5065.102       5280.014       12.312985      21.326716      20.107021    
      9500   207.42813     -1949.9194      11.556054     -1938.3634     -4223.7834      5267.0914      12.302932      21.309303      20.090604    
     10000   214.77331     -1949.6665      11.965262     -1937.7013      291.19003      5263.5837      12.3002        21.304572      20.086143    
     10500   205.60054     -1950.1584      11.454237     -1938.7042      5594.4103      5242.2273      12.283542      21.275719      20.05894     
     11000   195.22759     -1950.0411      10.876348     -1939.1648     -5122.9419      5281.7483      12.314333      21.329051      20.109222    
     11500   201.8902      -1950.0157      11.24753      -1938.7682      3207.5194      5246.6194      12.286972      21.281659      20.064541    
     12000   200.5165      -1950.3932      11.170999     -1939.2222      857.68511      5251.6014      12.29086       21.288393      20.07089     
     12500   201.85763     -1949.6903      11.245715     -1938.4446     -487.52575      5267.6971      12.303403      21.31012       20.091374    
     13000   210.87707     -1949.4791      11.748198     -1937.7309     -1449.0222      5265.1835      12.301446      21.30673       20.088178    
     13500   218.82687     -1949.6183      12.191091     -1937.4272     -1714.7459      5264.6405      12.301023      21.305997      20.087487    
     14000   193.00435     -1949.7377      10.752489     -1938.9852      573.09671      5259.5658      12.29707       21.299149      20.081031    
     14500   185.75052     -1949.6116      10.34837      -1939.2632     -5147.8234      5279.4168      12.312521      21.325912      20.106263    
     15000   201.92157     -1949.8196      11.249277     -1938.5703      3290.9529      5251.4344      12.290729      21.288167      20.070677    
     15500   208.86622     -1949.8528      11.636171     -1938.2167     -111.14339      5266.0771      12.302142      21.307935      20.089314    
     16000   211.24038     -1949.2915      11.768439     -1937.5231     -1403.2956      5261.1648      12.298316      21.301308      20.083065    
     16500   204.70661     -1949.5056      11.404435     -1938.1012     -3784.3861      5276.142       12.309975      21.321502      20.102105    
     17000   205.38718     -1950.6241      11.44235      -1939.1817      1421.9566      5257.4523      12.295422      21.296296      20.078341    
     17500   202.3057      -1950.1475      11.270678     -1938.8768      201.41317      5255.1232      12.293606      21.293151      20.075375    
     18000   207.49212     -1950.0133      11.559619     -1938.4536     -812.49513      5260.0196      12.297423      21.299762      20.081608    
     18500   202.70203     -1949.6523      11.292757     -1938.3596     -2630.7753      5268.7097      12.304192      21.311485      20.092661    
     19000   184.37494     -1950.474       10.271735     -1940.2023      4474.9495      5243.0379      12.284175      21.276816      20.059974    
     19500   194.964       -1950.1552      10.861663     -1939.2935     -839.73132      5259.7336      12.2972        21.299376      20.081244    
     20000   199.17911     -1949.886       11.096492     -1938.7895     -3483.4323      5265.9868      12.302072      21.307813      20.089199    
     20500   208.08795     -1949.667       11.592813     -1938.0742     -2784.2939      5260.3058      12.297646      21.300148      20.081972    
     21000   198.30393     -1950.0259      11.047734     -1938.9782      2694.8085      5253.3154      12.292196      21.290709      20.073073    
     21500   195.4088      -1950.2678      10.886444     -1939.3813      1127.7955      5256.1576      12.294413      21.294548      20.076692    
     22000   204.90147     -1950.6816      11.415291     -1939.2663      2300.8727      5249.333       12.28909       21.285328      20.067999    
     22500   193.13774     -1949.3319      10.75992      -1938.572       151.54221      5258.8798      12.296535      21.298223      20.080158    
     23000   198.34177     -1949.7075      11.049842     -1938.6577     -1460.6099      5259.797       12.29725       21.299462      20.081325    
     23500   192.5797      -1949.8023      10.728831     -1939.0734     -1791.7499      5265.2922      12.301531      21.306876      20.088316    
     24000   184.95708     -1950.0149      10.304166     -1939.7107      1895.6015      5255.7533      12.294098      21.294002      20.076177    
     24500   199.71178     -1950.0656      11.126167     -1938.9394      455.68559      5257.6854      12.295604      21.296611      20.078637    
     25000   197.14001     -1949.8409      10.982891     -1938.858       293.11476      5250.7297      12.290179      21.287215      20.069779    
     25500   205.24224     -1951.0891      11.434276     -1939.6549      1059.0789      5252.4825      12.291547      21.289584      20.072012    
     26000   201.05563     -1950.7411      11.201035     -1939.5401      5891.2205      5237.7889      12.280074      21.269713      20.053278    
     26500   197.16246     -1949.1617      10.984142     -1938.1776     -809.48374      5269.4374      12.304758      21.312466      20.093586    
     27000   211.66806     -1950.4451      11.792265     -1938.6528      2462.4026      5252.6104      12.291647      21.289756      20.072175    
     27500   195.1434      -1950.4874      10.871658     -1939.6158      665.98712      5257.2783      12.295287      21.296061      20.078119    
     28000   202.02152     -1950.6349      11.254846     -1939.38        4549.9767      5245.362       12.28599       21.279959      20.062938    
     28500   212.60171     -1949.8991      11.84428      -1938.0548      3875.5061      5248.6493      12.288556      21.284403      20.067128    
     29000   196.52531     -1950.0051      10.948646     -1939.0564     -5057.6867      5281.0088      12.313759      21.328055      20.108283    
     29500   209.19712     -1950.5884      11.654607     -1938.9338      2509.11        5250.4812      12.289986      21.286879      20.069462    
     30000   195.68073     -1949.9293      10.901593     -1939.0277     -1778.5205      5269.6737      12.304942      21.312785      20.093886    
     30500   203.567       -1950.1359      11.340946     -1938.7949     -4924.4855      5275.1301      12.309188      21.320139      20.100819    
     31000   198.54389     -1949.7555      11.061103     -1938.6944      2024.1225      5248.7433      12.288629      21.284531      20.067248    
     31500   196.75751     -1950.2738      10.961582     -1939.3122     -1955.2016      5264.4308      12.30086       21.305714      20.08722     
     32000   189.40686     -1950.6525      10.552069     -1940.1004     -1761.2277      5266.099       12.302159      21.307965      20.089342    
     32500   197.08124     -1949.5274      10.979617     -1938.5478     -1903.8047      5265.354       12.301579      21.30696       20.088394    
     33000   200.00556     -1949.6939      11.142534     -1938.5514      4481.076       5244.8251      12.285571      21.279233      20.062253    
     33500   190.61234     -1949.871       10.619227     -1939.2518     -3846.9143      5280.3058      12.313212      21.327109      20.107391    
     34000   185.69284     -1950.2185      10.345156     -1939.8733      5236.2502      5243.1592      12.28427       21.27698       20.060129    
     34500   191.64166     -1949.8152      10.676572     -1939.1386     -5216.2638      5276.0119      12.309873      21.321326      20.101939    
     35000   205.9025      -1950.2563      11.471059     -1938.7853      3669.5027      5252.621       12.291655      21.289771      20.072188    
     35500   188.74447     -1950.4686      10.515166     -1939.9535      953.69475      5261.259       12.298389      21.301435      20.083185    
     36000   192.73446     -1950.4892      10.737453     -1939.7518     -1843.8182      5260.828       12.298053      21.300853      20.082637    
     36500   196.40688     -1949.964       10.942048     -1939.0219     -1136.383       5257.9173      12.295785      21.296924      20.078932    
     37000   199.12953     -1949.7341      11.09373      -1938.6403      566.05908      5253.036       12.291979      21.290331      20.072717    
     37500   192.17097     -1950.216       10.706061     -1939.5099      602.36129      5260.7097      12.297961      21.300693      20.082486    
     38000   193.7771      -1950.4811      10.79554      -1939.6856      1426.2297      5258.4926      12.296233      21.297701      20.079665    
     38500   198.95776     -1949.6491      11.08416      -1938.5649     -1010.0141      5266.2794      12.3023        21.308208      20.089571    
     39000   209.74863     -1950.4965      11.685332     -1938.8111      7235.2196      5232.0839      12.275614      21.261988      20.045994    
     39500   192.10409     -1950.31        10.702335     -1939.6076     -4825.3275      5282.6893      12.315064      21.330317      20.110416    
     40000   197.82459     -1950.0631      11.02103      -1939.0421     -2230.6625      5271.3775      12.306268      21.315082      20.096052    
     40500   195.9634      -1949.0324      10.917341     -1938.115       4052.7328      5251.1533      12.29051       21.287788      20.070319    
     41000   197.50167     -1950.406       11.003039     -1939.403      -1088.6022      5261.6908      12.298726      21.302018      20.083735    
     41500   200.06195     -1950.8586      11.145676     -1939.7129      2270.7652      5243.5939      12.284609      21.277568      20.060683    
     42000   210.39295     -1950.3503      11.721227     -1938.629      -2919.6723      5267.102       12.30294       21.309317      20.090617    
     42500   188.97591     -1949.0864      10.52806      -1938.5583     -1180.4781      5274.0661      12.30836       21.318705      20.099468    
     43000   194.38524     -1950.0012      10.82942      -1939.1718     -3686.0409      5274.7751      12.308912      21.31966       20.100368    
     43500   190.98125     -1949.9733      10.63978      -1939.3335     -1566.6112      5264.8644      12.301198      21.306299      20.087772    
     44000   214.22512     -1950.4115      11.934722     -1938.4768     -1246.2784      5261.0267      12.298208      21.301121      20.08289     
     44500   208.45042     -1949.6698      11.613007     -1938.0568     -348.50927      5263.8723      12.300425      21.304961      20.08651     
     45000   197.53308     -1950.2069      11.00479      -1939.2021      3295.1041      5253.4761      12.292322      21.290926      20.073277    
     45500   198.98664     -1950.3622      11.085769     -1939.2764      1337.7514      5253.5858      12.292407      21.291074      20.073417    
     46000   200.69948     -1949.9334      11.181193     -1938.7522     -1608.6138      5264.1223      12.30062       21.305298      20.086828    
     46500   210.28186     -1949.7821      11.715038     -1938.0671      2109.746       5257.7467      12.295652      21.296694      20.078715    
     47000   207.56841     -1950.0223      11.563869     -1938.4584     -241.54066      5263.5023      12.300137      21.304462      20.086039    
     47500   189.90854     -1949.8422      10.580018     -1939.2622     -791.04989      5268.3365      12.303901      21.310982      20.092187    
     48000   205.63922     -1950.6591      11.456392     -1939.2027      1895.601       5248.3245      12.288303      21.283964      20.066714    
     48500   210.0371      -1948.9168      11.701403     -1937.2154     -786.57355      5268.5848      12.304095      21.311317      20.092502    
     49000   200.69193     -1949.6973      11.180773     -1938.5166      2453.2178      5258.8316      12.296497      21.298158      20.080096    
     49500   201.32257     -1950.2333      11.215906     -1939.0174      4246.5759      5248.9932      12.288824      21.284868      20.067566    
     50000   189.49822     -1950.3209      10.557159     -1939.7638     -5078.9482      5274.7196      12.308868      21.319585      20.100298    
Loop time of 462.646 on 8 procs for 50000 steps with 432 atoms

Performance: 9.338 ns/day, 2.570 hours/ns, 108.074 timesteps/s, 46.688 katom-step/s
88.5% CPU use with 1 MPI tasks x 8 OpenMP threads

MPI task timing breakdown:
Section |  min time  |  avg time  |  max time  |%varavg| %total
---------------------------------------------------------------
Pair    | 403.7      | 403.7      | 403.7      |   0.0 | 87.26
Neigh   | 0.000696   | 0.000696   | 0.000696   |   0.0 |  0.00
Comm    | 0.41522    | 0.41522    | 0.41522    |   0.0 |  0.09
Output  | 0.007305   | 0.007305   | 0.007305   |   0.0 |  0.00
Modify  | 58.447     | 58.447     | 58.447     |   0.0 | 12.63
Other   |            | 0.07251    |            |       |  0.02

Nlocal:            432 ave         432 max         432 min
Histogram: 1 0 0 0 0 0 0 0 0 0
Nghost:           2726 ave        2726 max        2726 min
Histogram: 1 0 0 0 0 0 0 0 0 0
Neighs:          37690 ave       37690 max       37690 min
Histogram: 1 0 0 0 0 0 0 0 0 0
FullNghs:        75380 ave       75380 max       75380 min
Histogram: 1 0 0 0 0 0 0 0 0 0

Total # of neighbors = 75380
Ave neighs/atom = 174.49074
Neighbor list builds = 1
Dangerous builds = 0

=== FINAL RESULTS: DHCP at 200 K ===
Atoms: 432 | PE/atom: -4.51368676115727 eV/atom
WARNING: Detected non-ASCII characters in input. Will try to continue by replacing with ASCII equivalents where known. (src/input.cpp:479)
Volume: 5274.71956010188 …³ | Area: 262.419969943658 ²
==========================================
DHCP 200 432 -4.51368676115727 5274.71956010188 12.3088683594707 21.3195853818476 20.100297859322 262.419969943658
Simulation complete!
Total wall time: 0:10:43
