LAMMPS (10 Sep 2025)
  using 8 OpenMP thread(s) per MPI task
Loaded 1 plugins from C:\Users\J.Shiva\AppData\Local\LAMMPS 64-bit 10Sep2025\plugins
using multi-threaded neighbor list subroutines
Reading data file ...
  orthogonal box = (0 0 0) to (22.155 22.155 22.155)
  1 by 1 by 1 MPI processor grid
  reading atoms ...
  864 atoms
  read_data CPU = 0.023 seconds
=== STAGE 1: Energy Minimization ===
Switching to 'neigh_modify every 1 delay 0 check yes' setting during minimization
No /omp style for force computation currently active
Neighbor list info ...
  update: every = 1 steps, delay = 0 steps, check = yes
  max neighbors/atom: 4000, page size: 100000
  master list distance cutoff = 8
  ghost atom cutoff = 8
  binsize = 4, bins = 6 6 6
  2 neighbor lists, perpetual/occasional/extra = 2 0 0
  (1) pair meam, perpetual
      attributes: full, newton on, omp
      pair build: full/bin/atomonly/omp
      stencil: full/bin/3d
      bin: standard
  (2) pair meam, perpetual, half/full from (1)
      attributes: half, newton on, omp
      pair build: halffull/newton/omp
      stencil: none
      bin: none
Setting up cg style minimization ...
  Unit style    : metal
  Current step  : 0
Per MPI rank memory allocation (min/avg/max) = 21.26 | 21.26 | 21.26 Mbytes
   Step          Temp          PotEng         KinEng         TotEng         Press          Volume           Lx             Ly             Lz      
         0   0             -3738.4993      0             -3738.4993     -69452.82       10874.649      22.155         22.155         22.155       
        20   0             -3867.6881      0             -3867.6881     -79262.011      10874.649      22.155         22.155         22.155       
Loop time of 1.84883 on 8 procs for 20 steps with 864 atoms

96.3% CPU use with 1 MPI tasks x 8 OpenMP threads

Minimization stats:
  Stopping criterion = energy tolerance
  Energy initial, next-to-last, final = 
     -3738.49932097134  -3867.68806524269  -3867.68806611059
  Force two-norm initial, final = 87.848063 14.613724
  Force max component initial, final = 7.3443284 6.7168874
  Final line search alpha, max atom move = 0.02338265 0.15705863
  Iterations, force evaluations = 20 43

MPI task timing breakdown:
Section |  min time  |  avg time  |  max time  |%varavg| %total
---------------------------------------------------------------
Pair    | 1.8302     | 1.8302     | 1.8302     |   0.0 | 98.99
Neigh   | 0          | 0          | 0          |   0.0 |  0.00
Comm    | 0.001354   | 0.001354   | 0.001354   |   0.0 |  0.07
Output  | 0          | 0          | 0          |   0.0 |  0.00
Modify  | 0.012729   | 0.012729   | 0.012729   |   0.0 |  0.69
Other   |            | 0.004515   |            |       |  0.24

Nlocal:            864 ave         864 max         864 min
Histogram: 1 0 0 0 0 0 0 0 0 0
Nghost:           3767 ave        3767 max        3767 min
Histogram: 1 0 0 0 0 0 0 0 0 0
Neighs:          76032 ave       76032 max       76032 min
Histogram: 1 0 0 0 0 0 0 0 0 0
FullNghs:       152064 ave      152064 max      152064 min
Histogram: 1 0 0 0 0 0 0 0 0 0

Total # of neighbors = 152064
Ave neighs/atom = 176
Neighbor list builds = 0
Dangerous builds = 0
Minimized PE/atom: -4.47649081725762 eV/atom
=== STAGE 2: NPT Equilibration at 650 K ===
No /omp style for force computation currently active
Setting up Verlet run ...
  Unit style    : metal
  Current step  : 0
  Time step     : 0.002
Per MPI rank memory allocation (min/avg/max) = 20.14 | 20.14 | 20.14 Mbytes
   Step          Temp          PotEng         KinEng         TotEng         Press          Volume           Lx             Ly             Lz      
         0   650           -3867.6881      72.508478     -3795.1796     -72140.164      10874.649      22.155         22.155         22.155       
       500   633.49338     -3818.0229      70.66714      -3747.3558     -977.87882      10427.773      21.847271      21.847271      21.847271    
      1000   613.52531     -3817.4831      68.439672     -3749.0435      1112.4398      10401.524      21.828924      21.828924      21.828924    
      1500   657.09521     -3814.4538      73.299959     -3741.1538      444.72132      10420.096      21.841908      21.841908      21.841908    
      2000   670.2825      -3813.4363      74.771022     -3738.6653     -1275.8154      10445.748      21.859817      21.859817      21.859817    
      2500   635.17777     -3812.8223      70.855037     -3741.9672      1875.6928      10435.329      21.852546      21.852546      21.852546    
      3000   641.19399     -3817.2442      71.526155     -3745.718       887.72623      10406.324      21.832281      21.832281      21.832281    
      3500   636.34594     -3817.5352      70.985347     -3746.5499     -44.385729      10425.455      21.845652      21.845652      21.845652    
      4000   643.42193     -3814.8586      71.774684     -3743.0839     -505.75174      10429.865      21.848732      21.848732      21.848732    
      4500   677.90532     -3817.3968      75.621358     -3741.7755      284.41511      10434.596      21.852035      21.852035      21.852035    
      5000   650.78988     -3819.6651      72.59659      -3747.0685     -831.10206      10438.543      21.85479       21.85479       21.85479     
      5500   615.05899     -3815.0636      68.610757     -3746.4529      2144.475       10417.092      21.839809      21.839809      21.839809    
      6000   658.18798     -3815.9083      73.421859     -3742.4865      5735.5305      10388.457      21.819779      21.819779      21.819779    
      6500   668.77576     -3815.2928      74.602942     -3740.6898      4461.7844      10381.842      21.815147      21.815147      21.815147    
      7000   680.52346     -3815.981       75.913417     -3740.0675      3198.5395      10419.321      21.841366      21.841366      21.841366    
      7500   654.63058     -3815.9398      73.025027     -3742.9148     -2569.0417      10435.536      21.852691      21.852691      21.852691    
      8000   667.42562     -3816.4625      74.452332     -3742.0101     -1336.5917      10439.567      21.855504      21.855504      21.855504    
      8500   643.7429      -3812.4761      71.81049      -3740.6656     -1998.3462      10450.807      21.863345      21.863345      21.863345    
      9000   634.21802     -3813.1917      70.747975     -3742.4437     -70.453551      10436.568      21.853411      21.853411      21.853411    
      9500   668.56126     -3818.0504      74.579015     -3743.4714      1638.9423      10424.355      21.844883      21.844883      21.844883    
     10000   650.86363     -3815.6587      72.604818     -3743.0539      2849.9531      10423.334      21.84417       21.84417       21.84417     
     10500   619.42908     -3809.4886      69.098246     -3740.3904     -8214.3213      10504.697      21.900861      21.900861      21.900861    
     11000   678.864       -3816.8865      75.728301     -3741.1582     -7321.3908      10491.184      21.891465      21.891465      21.891465    
     11500   663.62686     -3815.0818      74.028576     -3741.0532     -1709.5864      10450.464      21.863106      21.863106      21.863106    
     12000   631.556       -3814.5346      70.451023     -3744.0836      6295.2437      10399.001      21.827158      21.827158      21.827158    
     12500   665.21315     -3815.323       74.205528     -3741.1174      2648.338       10432.631      21.850663      21.850663      21.850663    
     13000   672.99061     -3812.7082      75.073115     -3737.6351      3586.5062      10426.891      21.846654      21.846654      21.846654    
     13500   641.5426      -3815.2659      71.565042     -3743.7009      505.4075       10455.961      21.866938      21.866938      21.866938    
     14000   636.03998     -3814.3335      70.951218     -3743.3823     -33.657887      10444.261      21.858779      21.858779      21.858779    
     14500   674.32343     -3814.0542      75.221794     -3738.8324      2671.7048      10430.058      21.848866      21.848866      21.848866    
     15000   674.3275      -3813.587       75.222248     -3738.3648      7889.2107      10370.057      21.806889      21.806889      21.806889    
     15500   654.5113      -3813.8521      73.01172      -3740.8404      3275.4151      10410.239      21.835018      21.835018      21.835018    
     16000   635.64763     -3813.1019      70.907449     -3742.1944      893.59985      10424.893      21.845259      21.845259      21.845259    
     16500   622.08203     -3817.993       69.394187     -3748.5989     -1070.4448      10435.966      21.852991      21.852991      21.852991    
     17000   626.39373     -3817.9034      69.875163     -3748.0283     -4063.761       10456.495      21.867311      21.867311      21.867311    
     17500   656.86939     -3818.5823      73.274769     -3745.3075      2574.6774      10423.085      21.843996      21.843996      21.843996    
     18000   671.76257     -3817.7813      74.936125     -3742.8452      2052.8122      10416.602      21.839467      21.839467      21.839467    
     18500   659.92579     -3813.4543      73.615715     -3739.8386      488.53         10437.789      21.854263      21.854263      21.854263    
     19000   646.85492     -3815.4052      72.15764      -3743.2475     -415.76726      10445.612      21.859722      21.859722      21.859722    
     19500   685.10077     -3817.2721      76.424022     -3740.8481      2201.8085      10412.483      21.836587      21.836587      21.836587    
     20000   650.38634     -3817.1236      72.551575     -3744.5721     -471.1913       10440.734      21.856319      21.856319      21.856319    
Loop time of 819.036 on 8 procs for 20000 steps with 864 atoms

Performance: 4.220 ns/day, 5.688 hours/ns, 24.419 timesteps/s, 21.098 katom-step/s
92.5% CPU use with 1 MPI tasks x 8 OpenMP threads

MPI task timing breakdown:
Section |  min time  |  avg time  |  max time  |%varavg| %total
---------------------------------------------------------------
Pair    | 786.07     | 786.07     | 786.07     |   0.0 | 95.98
Neigh   | 0.011777   | 0.011777   | 0.011777   |   0.0 |  0.00
Comm    | 0.58533    | 0.58533    | 0.58533    |   0.0 |  0.07
Output  | 0.005937   | 0.005937   | 0.005937   |   0.0 |  0.00
Modify  | 32.268     | 32.268     | 32.268     |   0.0 |  3.94
Other   |            | 0.09459    |            |       |  0.01

Nlocal:            864 ave         864 max         864 min
Histogram: 1 0 0 0 0 0 0 0 0 0
Nghost:           3759 ave        3759 max        3759 min
Histogram: 1 0 0 0 0 0 0 0 0 0
Neighs:          76680 ave       76680 max       76680 min
Histogram: 1 0 0 0 0 0 0 0 0 0
FullNghs:       153360 ave      153360 max      153360 min
Histogram: 1 0 0 0 0 0 0 0 0 0

Total # of neighbors = 153360
Ave neighs/atom = 177.5
Neighbor list builds = 2
Dangerous builds = 0
=== STAGE 3: NPT Production at 650 K ===
No /omp style for force computation currently active
Setting up Verlet run ...
  Unit style    : metal
  Current step  : 0
  Time step     : 0.001
Per MPI rank memory allocation (min/avg/max) = 20.15 | 20.15 | 20.15 Mbytes
   Step          Temp          PotEng         KinEng         TotEng         Press          Volume           Lx             Ly             Lz      
         0   650.38634     -3817.1236      72.551575     -3744.5721     -471.1913       10440.734      21.856319      21.856319      21.856319    
       500   662.20135     -3816.9112      73.869557     -3743.0416      674.49283      10426.829      21.846612      21.846612      21.846612    
      1000   672.29641     -3815.6134      74.995677     -3740.6177     -4997.9201      10459.215      21.869207      21.869207      21.869207    
      1500   636.31767     -3815.6196      70.982194     -3744.6374     -9834.3482      10504.672      21.900843      21.900843      21.900843    
      2000   636.51682     -3820.3943      71.004409     -3749.3899     -5553.189       10455.741      21.866785      21.866785      21.866785    
      2500   651.78519     -3816.8209      72.707619     -3744.1133     -1944.2972      10452.326      21.864404      21.864404      21.864404    
      3000   645.85698     -3811.8693      72.046318     -3739.823       368.72176      10454.281      21.865767      21.865767      21.865767    
      3500   629.6469      -3812.9723      70.238059     -3742.7342      2122.7711      10427.59       21.847143      21.847143      21.847143    
      4000   614.693       -3816.8232      68.56993      -3748.2532      445.36315      10416.811      21.839612      21.839612      21.839612    
      4500   642.62951     -3815.5317      71.68629      -3743.8454     -7258.4366      10497.951      21.896171      21.896171      21.896171    
      5000   654.23306     -3814.0554      72.980682     -3741.0747     -2718.3075      10447.57       21.861087      21.861087      21.861087    
      5500   674.37121     -3818.3082      75.227124     -3743.0811      1829.9237      10421.694      21.843025      21.843025      21.843025    
      6000   644.90979     -3819.5394      71.940658     -3747.5987     -679.32629      10429.324      21.848354      21.848354      21.848354    
      6500   643.84881     -3818.4171      71.822304     -3746.5947     -384.1142       10432.777      21.850765      21.850765      21.850765    
      7000   655.50413     -3817.8311      73.122473     -3744.7086      2018.7949      10430.202      21.848967      21.848967      21.848967    
      7500   614.50794     -3818.2457      68.549285     -3749.6964     -645.40448      10428.756      21.847957      21.847957      21.847957    
      8000   632.5061      -3813.1833      70.557007     -3742.6263     -2210.7516      10467.562      21.875023      21.875023      21.875023    
      8500   646.6214      -3814.5668      72.131591     -3742.4352      3788.298       10419.045      21.841174      21.841174      21.841174    
      9000   652.90391     -3816.607       72.832414     -3743.7746      1972.7726      10436.765      21.853548      21.853548      21.853548    
      9500   670.94432     -3820.6616      74.844849     -3745.8168     -1404.0421      10449.626      21.862521      21.862521      21.862521    
     10000   655.09545     -3818.7896      73.076883     -3745.7127      1867.3418      10427.707      21.847225      21.847225      21.847225    
     10500   617.8243      -3814.456       68.91923      -3745.5368      5982.8849      10381.654      21.815015      21.815015      21.815015    
     11000   653.11222     -3816.7193      72.855651     -3743.8637      838.97481      10439.409      21.855394      21.855394      21.855394    
     11500   650.29641     -3813.3491      72.541544     -3740.8076     -2684.5402      10464.268      21.872728      21.872728      21.872728    
     12000   620.87542     -3809.9967      69.259587     -3740.7371     -6134.2716      10501.669      21.898756      21.898756      21.898756    
     12500   608.21957     -3813.1195      67.847808     -3745.2717     -8911.0498      10505.847      21.90166       21.90166       21.90166     
     13000   652.47844     -3817.3958      72.784952     -3744.6109     -2414.3688      10466.549      21.874317      21.874317      21.874317    
     13500   641.26995     -3816.327       71.534628     -3744.7924      4193.6719      10424.588      21.845046      21.845046      21.845046    
     14000   637.92504     -3816.9716      71.161499     -3745.8101      4191.3891      10408.385      21.833722      21.833722      21.833722    
     14500   646.0926      -3815.3783      72.072602     -3743.3057      3802.5197      10419.418      21.841435      21.841435      21.841435    
     15000   694.97561     -3818.3238      77.525575     -3740.7982     -2774.4386      10437.454      21.854029      21.854029      21.854029    
     15500   647.00059     -3813.8402      72.17389      -3741.6663     -7458.1648      10514.564      21.907716      21.907716      21.907716    
     16000   649.66863     -3817.1324      72.471513     -3744.6609     -6495.5593      10489.469      21.890272      21.890272      21.890272    
     16500   610.07613     -3817.2435      68.05491      -3749.1886     -2557.242       10447.803      21.86125       21.86125       21.86125     
     17000   630.58466     -3818.1043      70.342668     -3747.7616      1343.2933      10409.252      21.834328      21.834328      21.834328    
     17500   659.93963     -3815.3086      73.617259     -3741.6914     -2709.6081      10471.897      21.878042      21.878042      21.878042    
     18000   649.99481     -3816.6634      72.5079       -3744.1555      971.9056       10432.718      21.850724      21.850724      21.850724    
     18500   667.98227     -3812.1036      74.514428     -3737.5892     -4372.6156      10489.045      21.889977      21.889977      21.889977    
     19000   653.58085     -3814.735       72.907927     -3741.827      -844.0044       10455.913      21.866905      21.866905      21.866905    
     19500   659.03957     -3819.3719      73.516856     -3745.855       3164.2585      10410.335      21.835086      21.835086      21.835086    
     20000   638.43558     -3815.0251      71.21845      -3743.8067      467.57794      10428.33       21.84766       21.84766       21.84766     
     20500   654.35795     -3812.3238      72.994614     -3739.3292     -621.21659      10469.987      21.876712      21.876712      21.876712    
     21000   643.39586     -3816.7922      71.771776     -3745.0204      3551.0218      10416.573      21.839446      21.839446      21.839446    
     21500   665.69192     -3814.6251      74.258936     -3740.3662      3241.5012      10427.567      21.847127      21.847127      21.847127    
     22000   679.16125     -3817.8713      75.76146      -3742.1099      2697.6949      10423.438      21.844243      21.844243      21.844243    
     22500   647.51891     -3818.4851      72.231709     -3746.2534      549.39867      10438.956      21.855078      21.855078      21.855078    
     23000   656.14055     -3814.2385      73.193466     -3741.0451     -0.60591585     10442.812      21.857769      21.857769      21.857769    
     23500   683.57441     -3813.7693      76.253754     -3737.5156     -2920.3172      10469.134      21.876117      21.876117      21.876117    
     24000   648.66022     -3815.3387      72.359024     -3742.9797      1019.5694      10454.605      21.865993      21.865993      21.865993    
     24500   633.68959     -3816.8348      70.689028     -3746.1458      3527.3002      10416.813      21.839614      21.839614      21.839614    
     25000   691.37339     -3820.4414      77.123742     -3743.3176      1344.6734      10453.161      21.864987      21.864987      21.864987    
     25500   655.48916     -3814.265       73.120802     -3741.1442     -1559.5985      10468.636      21.875771      21.875771      21.875771    
     26000   664.12579     -3813.3264      74.084231     -3739.2422     -5141.0119      10485.747      21.887683      21.887683      21.887683    
     26500   664.4061      -3817.811       74.1155       -3743.6955      6745.2429      10385.859      21.81796       21.81796       21.81796     
     27000   687.50688     -3816.8635      76.692427     -3740.171       5528.9105      10412.327      21.836478      21.836478      21.836478    
     27500   671.87488     -3813.476       74.948655     -3738.5274      355.73413      10465.317      21.873459      21.873459      21.873459    
     28000   658.6378      -3815.1416      73.472038     -3741.6695      371.54264      10450.839      21.863367      21.863367      21.863367    
     28500   660.67993     -3816.4522      73.699841     -3742.7523     -922.8581       10454.537      21.865946      21.865946      21.865946    
     29000   650.02182     -3815.7572      72.510913     -3743.2463     -1391.4536      10449.307      21.862299      21.862299      21.862299    
     29500   655.52468     -3813.376       73.124764     -3740.2513     -3049.6991      10496.056      21.894854      21.894854      21.894854    
     30000   645.78222     -3815.0096      72.037978     -3742.9716      1239.1166      10449.785      21.862633      21.862633      21.862633    
     30500   667.30215     -3817.9501      74.43856      -3743.5115      5981.6272      10394.401      21.82394       21.82394       21.82394     
     31000   662.46185     -3813.9327      73.898617     -3740.0341      5286.9019      10420.544      21.842221      21.842221      21.842221    
     31500   665.00942     -3818.0416      74.182801     -3743.8588      3286.913       10441.644      21.856953      21.856953      21.856953    
     32000   631.35496     -3813.0232      70.428597     -3742.5946     -3976.4754      10488.17       21.889369      21.889369      21.889369    
     32500   656.51096     -3814.9188      73.234786     -3741.684      -5946.5476      10504.152      21.900482      21.900482      21.900482    
     33000   630.69515     -3813.8514      70.354993     -3743.4964      954.3285       10461.308      21.870666      21.870666      21.870666    
     33500   648.81463     -3819.1937      72.376248     -3746.8175      5467.193       10411.436      21.835855      21.835855      21.835855    
     34000   648.86773     -3815.5602      72.382172     -3743.1781      4641.9099      10422.142      21.843337      21.843337      21.843337    
     34500   651.45251     -3815.3118      72.670508     -3742.6413      3574.368       10438.805      21.854973      21.854973      21.854973    
     35000   634.65926     -3818.1107      70.797196     -3747.3135      4133.6186      10419.376      21.841405      21.841405      21.841405    
     35500   609.49789     -3815.8148      67.990407     -3747.8244     -2083.6265      10469.259      21.876205      21.876205      21.876205    
     36000   666.71647     -3813.0754      74.373225     -3738.7022     -2339.1009      10486.516      21.888218      21.888218      21.888218    
     36500   695.65461     -3815.9219      77.601319     -3738.3205     -1345.9057      10454.178      21.865695      21.865695      21.865695    
     37000   648.86248     -3815.4727      72.381586     -3743.0911     -1055.1421      10482.485      21.885413      21.885413      21.885413    
     37500   642.44837     -3817.2592      71.666083     -3745.5932     -4904.0717      10479.045      21.883019      21.883019      21.883019    
     38000   636.894       -3816.0974      71.046485     -3745.0509      3634.6981      10426.3        21.846242      21.846242      21.846242    
     38500   656.15749     -3813.8844      73.195355     -3740.689       7359.129       10421.518      21.842901      21.842901      21.842901    
     39000   644.19094     -3815.9504      71.860469     -3744.0899      1783.7064      10442.189      21.857334      21.857334      21.857334    
     39500   641.23406     -3814.8404      71.530624     -3743.3098      2467.3663      10462.324      21.871373      21.871373      21.871373    
     40000   654.57827     -3813.1875      73.019192     -3740.1683      862.86763      10467.803      21.875191      21.875191      21.875191    
     40500   635.596       -3816.1928      70.90169      -3745.2911      656.12117      10463.314      21.872063      21.872063      21.872063    
     41000   668.35411     -3818.8691      74.555907     -3744.3132     -3815.7476      10478.406      21.882574      21.882574      21.882574    
     41500   663.44328     -3815.9506      74.008097     -3741.9425     -1536.6433      10480.427      21.883981      21.883981      21.883981    
     42000   657.70166     -3817.0844      73.367611     -3743.7168     -2466.0807      10470.819      21.877291      21.877291      21.877291    
     42500   625.05226     -3811.1233      69.72552      -3741.3978     -4158.2522      10502.792      21.899537      21.899537      21.899537    
     43000   639.43477     -3814.6308      71.329912     -3743.3009      2503.433       10435.805      21.852878      21.852878      21.852878    
     43500   640.46542     -3816.2695      71.444881     -3744.8246      3734.0684      10429.972      21.848806      21.848806      21.848806    
     44000   653.48061     -3815.1419      72.896745     -3742.2452      1884.973       10434.59       21.85203       21.85203       21.85203     
     44500   649.36018     -3814.1533      72.437105     -3741.7161     -2660.8552      10475.73       21.880711      21.880711      21.880711    
     45000   667.08        -3816.2273      74.413778     -3741.8135      1377.2709      10447.64       21.861136      21.861136      21.861136    
     45500   644.28006     -3814.0096      71.870411     -3742.1392      7449.9956      10397.284      21.825958      21.825958      21.825958    
     46000   650.0244      -3816.9978      72.5112       -3744.4866     -1208.6257      10466.633      21.874375      21.874375      21.874375    
     46500   639.32544     -3817.4297      71.317716     -3746.112       1339.2559      10430.659      21.849286      21.849286      21.849286    
     47000   611.27408     -3815.4355      68.188544     -3747.247       2156.4893      10436.149      21.853118      21.853118      21.853118    
     47500   674.43767     -3817.5799      75.234537     -3742.3453      1155.1853      10454.095      21.865638      21.865638      21.865638    
     48000   644.95624     -3820.1621      71.945839     -3748.2162     -2261.3949      10448.183      21.861515      21.861515      21.861515    
     48500   656.04668     -3810.6279      73.182994     -3737.4449      2704.5492      10435.004      21.852319      21.852319      21.852319    
     49000   677.55601     -3815.0817      75.582392     -3739.4993      286.24177      10458.99       21.86905       21.86905       21.86905     
     49500   631.61705     -3815.4058      70.457833     -3744.9479      1463.9456      10440.461      21.856128      21.856128      21.856128    
     50000   666.10856     -3811.5273      74.305412     -3737.2218      1802.5277      10440.806      21.856369      21.856369      21.856369    
Loop time of 2032.38 on 8 procs for 50000 steps with 864 atoms

Performance: 2.126 ns/day, 11.291 hours/ns, 24.602 timesteps/s, 21.256 katom-step/s
92.8% CPU use with 1 MPI tasks x 8 OpenMP threads

MPI task timing breakdown:
Section |  min time  |  avg time  |  max time  |%varavg| %total
---------------------------------------------------------------
Pair    | 1951.3     | 1951.3     | 1951.3     |   0.0 | 96.01
Neigh   | 0.01319    | 0.01319    | 0.01319    |   0.0 |  0.00
Comm    | 1.4216     | 1.4216     | 1.4216     |   0.0 |  0.07
Output  | 0.014235   | 0.014235   | 0.014235   |   0.0 |  0.00
Modify  | 79.398     | 79.398     | 79.398     |   0.0 |  3.91
Other   |            | 0.2129     |            |       |  0.01

Nlocal:            864 ave         864 max         864 min
Histogram: 1 0 0 0 0 0 0 0 0 0
Nghost:           3763 ave        3763 max        3763 min
Histogram: 1 0 0 0 0 0 0 0 0 0
Neighs:          76396 ave       76396 max       76396 min
Histogram: 1 0 0 0 0 0 0 0 0 0
FullNghs:       152792 ave      152792 max      152792 min
Histogram: 1 0 0 0 0 0 0 0 0 0

Total # of neighbors = 152792
Ave neighs/atom = 176.84259
Neighbor list builds = 2
Dangerous builds = 0

=== FINAL RESULTS: FCC at 650 K ===
Atoms: 864 | PE/atom: -4.41587233474268 eV/atom
WARNING: Detected non-ASCII characters in input. Will try to continue by replacing with ASCII equivalents where known. (src/input.cpp:479)
Volume: 10440.8058209529 …³ | Area: 477.700848325605 ²
==========================================
FCC 650 864 -4.41587233474268 10440.8058209529 21.856368598777 21.856368598777 21.856368598777 477.700848325605
Simulation complete!
Total wall time: 0:47:33
