LAMMPS (10 Sep 2025)
  using 8 OpenMP thread(s) per MPI task
Loaded 1 plugins from C:\Users\J.Shiva\AppData\Local\LAMMPS 64-bit 10Sep2025\plugins
using multi-threaded neighbor list subroutines
Reading data file ...
  orthogonal box = (0 0 0) to (15.665951 27.134223 25.58239)
  1 by 1 by 1 MPI processor grid
  reading atoms ...
  432 atoms
  read_data CPU = 0.017 seconds
=== STAGE 1: Energy Minimization ===
Switching to 'neigh_modify every 1 delay 0 check yes' setting during minimization
No /omp style for force computation currently active
Neighbor list info ...
  update: every = 1 steps, delay = 0 steps, check = yes
  max neighbors/atom: 4000, page size: 100000
  master list distance cutoff = 8
  ghost atom cutoff = 8
  binsize = 4, bins = 4 7 7
  2 neighbor lists, perpetual/occasional/extra = 2 0 0
  (1) pair meam, perpetual
      attributes: full, newton on, omp
      pair build: full/bin/atomonly/omp
      stencil: full/bin/3d
      bin: standard
  (2) pair meam, perpetual, half/full from (1)
      attributes: half, newton on, omp
      pair build: halffull/newton/omp
      stencil: none
      bin: none
Setting up cg style minimization ...
  Unit style    : metal
  Current step  : 0
Per MPI rank memory allocation (min/avg/max) = 19.38 | 19.38 | 19.38 Mbytes
   Step          Temp          PotEng         KinEng         TotEng         Press          Volume           Lx             Ly             Lz      
         0   0             -1123.9472      0             -1123.9472     -107765.5       10874.649      15.665951      27.134223      25.58239     
       108   0             -1543.1362      0             -1543.1362     -60185.995      10874.649      15.665951      27.134223      25.58239     
Loop time of 1.89131 on 8 procs for 108 steps with 432 atoms

93.4% CPU use with 1 MPI tasks x 8 OpenMP threads

Minimization stats:
  Stopping criterion = energy tolerance
  Energy initial, next-to-last, final = 
     -1123.94719489076  -1543.13617220584  -1543.13623334153
  Force two-norm initial, final = 28.348801 12.370864
  Force max component initial, final = 3.6858097 3.9895927
  Final line search alpha, max atom move = 0.029873868 0.11918456
  Iterations, force evaluations = 108 206

MPI task timing breakdown:
Section |  min time  |  avg time  |  max time  |%varavg| %total
---------------------------------------------------------------
Pair    | 1.8219     | 1.8219     | 1.8219     |   0.0 | 96.33
Neigh   | 0.010172   | 0.010172   | 0.010172   |   0.0 |  0.54
Comm    | 0.00306    | 0.00306    | 0.00306    |   0.0 |  0.16
Output  | 0          | 0          | 0          |   0.0 |  0.00
Modify  | 0.051267   | 0.051267   | 0.051267   |   0.0 |  2.71
Other   |            | 0.004882   |            |       |  0.26

Nlocal:            432 ave         432 max         432 min
Histogram: 1 0 0 0 0 0 0 0 0 0
Nghost:           1784 ave        1784 max        1784 min
Histogram: 1 0 0 0 0 0 0 0 0 0
Neighs:          18319 ave       18319 max       18319 min
Histogram: 1 0 0 0 0 0 0 0 0 0
FullNghs:        36638 ave       36638 max       36638 min
Histogram: 1 0 0 0 0 0 0 0 0 0

Total # of neighbors = 36638
Ave neighs/atom = 84.810185
Neighbor list builds = 5
Dangerous builds = 0
Minimized PE/atom: -3.57207461421651 eV/atom
=== STAGE 2: NPT Equilibration at 400 K ===
No /omp style for force computation currently active
Setting up Verlet run ...
  Unit style    : metal
  Current step  : 0
  Time step     : 0.002
Per MPI rank memory allocation (min/avg/max) = 18.26 | 18.26 | 18.26 Mbytes
   Step          Temp          PotEng         KinEng         TotEng         Press          Volume           Lx             Ly             Lz      
         0   400           -1543.1362      22.284449     -1520.8518     -57997.197      10874.649      15.665951      27.134223      25.58239     
       500   937.87277     -1815.311       52.249945     -1763.0611     -3728.3526      6012.1144      12.857625      22.270059      20.996413    
      1000   375.39737     -1896.8513      20.913809     -1875.9374     -2423.559       5622.2782      12.573488      21.77792       20.53242     
      1500   352.09492     -1914.7044      19.615603     -1895.0888     -1722.3841      5548.2342      12.518048      21.681894      20.441886    
      2000   384.75824     -1920.9414      21.435313     -1899.5061     -1685.9611      5498.2213      12.480321      21.616549      20.380278    
      2500   403.27104     -1922.3769      22.466682     -1899.9103     -3271.7911      5483.1661      12.468919      21.596801      20.361659    
      3000   399.65532     -1925.9413      22.265246     -1903.6761      1793.1135      5450.8835      12.4444        21.554333      20.32162     
      3500   408.57105     -1930.0228      22.761952     -1907.2608     -9.2857795      5446.4093      12.440994      21.548434      20.316059    
      4000   392.30223     -1937.036       21.855598     -1915.1804     -2891.1096      5418.4413      12.419662      21.511486      20.281224    
      4500   413.49384     -1936.9235      23.036206     -1913.8872     -5318.1766      5432.4549      12.43036       21.530015      20.298693    
      5000   401.21456     -1940.0145      22.352114     -1917.6624      2314.4635      5400.368       12.405838      21.487542      20.258649    
      5500   419.6341      -1942.753       23.378287     -1919.3747     -7016.7967      5413.9267      12.416212      21.50551       20.27559     
      6000   373.52364     -1943.5166      20.809421     -1922.7072     -2984.7365      5393.4217      12.400517      21.478326      20.24996     
      6500   396.5417      -1945.5408      22.091783     -1923.449      -858.89222      5361.9246      12.376331      21.436433      20.210463    
      7000   419.27391     -1948.9537      23.35822      -1925.5955     -610.85231      5347.5261      12.365243      21.417228      20.192357    
      7500   399.25332     -1947.6492      22.24285      -1925.4063      1636.1619      5344.3912      12.362826      21.413042      20.18841     
      8000   411.95203     -1948.6148      22.95031      -1925.6645     -2587.3717      5362.1529      12.376506      21.436738      20.21075     
      8500   387.84775     -1948.8047      21.607433     -1927.1973     -4093.1767      5363.4279      12.377487      21.438437      20.212352    
      9000   361.07008     -1949.3758      20.11562      -1929.2602      2575.9069      5309.5853      12.335929      21.366456      20.144488    
      9500   398.35012     -1951.7391      22.192532     -1929.5466     -6725.2439      5323.0366      12.346338      21.384484      20.161485    
     10000   406.47554     -1952.7765      22.645208     -1930.1313     -3204.1374      5325.5245      12.348261      21.387815      20.164626    
     10500   422.53645     -1952.8713      23.53998      -1929.3313     -2115.8864      5319.8638      12.343884      21.380235      20.157479    
     11000   433.8745      -1954.0555      24.171635     -1929.8839     -4800.7248      5323.1064      12.346392      21.384578      20.161573    
     11500   409.94091     -1954.2871      22.838268     -1931.4488      4608.1882      5296.6032      12.325867      21.349028      20.128057    
     12000   392.97146     -1955.5565      21.892881     -1933.6636     -12550.196      5349.2838      12.366597      21.419575      20.194569    
     12500   374.46716     -1953.9584      20.861986     -1933.0964     -1032.3991      5326.2509      12.348822      21.388788      20.165542    
     13000   414.82366     -1955.6081      23.110292     -1932.4978     -2735.9559      5330.6499      12.352221      21.394675      20.171093    
     13500   393.27992     -1951.9986      21.910066     -1930.0885      2831.3981      5325.0044      12.347859      21.387119      20.163969    
     14000   395.21786     -1954.5424      22.018031     -1932.5244      1012.792       5317.8127      12.342298      21.377486      20.154888    
     14500   411.86248     -1954.8598      22.945321     -1931.9145      2233.7348      5315.0131      12.340131      21.373734      20.15135     
     15000   404.6349      -1953.5609      22.542665     -1931.0182     -3623.7409      5334.5266      12.355215      21.39986       20.175981    
     15500   400.28915     -1954.5586      22.300558     -1932.2581      1092.2229      5324.3879      12.347382      21.386294      20.163191    
     16000   416.973       -1957.1088      23.230034     -1933.8788      1499.0829      5304.6986      12.332144      21.359899      20.138306    
     16500   388.58591     -1954.7741      21.648557     -1933.1255     -1083.5634      5319.9609      12.343959      21.380365      20.157601    
     17000   403.23597     -1954.0928      22.464728     -1931.6281      7071.9157      5298.6186      12.32743       21.351736      20.130609    
     17500   399.356       -1955.5921      22.248571     -1933.3435     -2480.4111      5330.0345      12.351746      21.393851      20.170316    
     18000   408.4205      -1954.662       22.753564     -1931.9085     -4358.4065      5328.0038      12.350177      21.391134      20.167754    
     18500   437.654       -1955.6245      24.382195     -1931.2423     -2701.0823      5312.0985      12.337875      21.369827      20.147666    
     19000   388.95523     -1955.2321      21.669133     -1933.563       155.33477      5313.1712      12.338706      21.371265      20.149022    
     19500   389.6271      -1956.5213      21.706563     -1934.8148     -7779.2845      5342.25        12.361175      21.410182      20.185714    
     20000   391.57235     -1956.7646      21.814935     -1934.9497      2969.0082      5298.1886      12.327097      21.351158      20.130065    
Loop time of 409.406 on 8 procs for 20000 steps with 432 atoms

Performance: 8.441 ns/day, 2.843 hours/ns, 48.851 timesteps/s, 21.104 katom-step/s
91.5% CPU use with 1 MPI tasks x 8 OpenMP threads

MPI task timing breakdown:
Section |  min time  |  avg time  |  max time  |%varavg| %total
---------------------------------------------------------------
Pair    | 377.81     | 377.81     | 377.81     |   0.0 | 92.28
Neigh   | 0.095301   | 0.095301   | 0.095301   |   0.0 |  0.02
Comm    | 0.3839     | 0.3839     | 0.3839     |   0.0 |  0.09
Output  | 0.006036   | 0.006036   | 0.006036   |   0.0 |  0.00
Modify  | 31.048     | 31.048     | 31.048     |   0.0 |  7.58
Other   |            | 0.06197    |            |       |  0.02

Nlocal:            432 ave         432 max         432 min
Histogram: 1 0 0 0 0 0 0 0 0 0
Nghost:           2648 ave        2648 max        2648 min
Histogram: 1 0 0 0 0 0 0 0 0 0
Neighs:          36826 ave       36826 max       36826 min
Histogram: 1 0 0 0 0 0 0 0 0 0
FullNghs:        73652 ave       73652 max       73652 min
Histogram: 1 0 0 0 0 0 0 0 0 0

Total # of neighbors = 73652
Ave neighs/atom = 170.49074
Neighbor list builds = 30
Dangerous builds = 0
=== STAGE 3: NPT Production at 400 K ===
No /omp style for force computation currently active
Setting up Verlet run ...
  Unit style    : metal
  Current step  : 0
  Time step     : 0.001
Per MPI rank memory allocation (min/avg/max) = 18.9 | 18.9 | 18.9 Mbytes
   Step          Temp          PotEng         KinEng         TotEng         Press          Volume           Lx             Ly             Lz      
         0   391.57235     -1956.7646      21.814935     -1934.9497      2969.0082      5298.1886      12.327097      21.351158      20.130065    
       500   397.10636     -1957.0567      22.123241     -1934.9334     -2999.1291      5314.0232      12.339365      21.372407      20.150099    
      1000   399.80084     -1956.1823      22.273353     -1933.9089      4163.7677      5305.2348      12.332559      21.360619      20.138985    
      1500   417.89865     -1955.8489      23.281603     -1932.5673      1329.9612      5316.9725      12.341648      21.376361      20.153826    
      2000   403.51106     -1957.5384      22.480054     -1935.0583      1721.9464      5307.0974      12.334002      21.363118      20.141341    
      2500   382.70364     -1957.1283      21.320849     -1935.8074     -1576.8664      5311.2083      12.337186      21.368633      20.14654     
      3000   405.67115     -1958.1599      22.600395     -1935.5595      2718.2424      5312.9377      12.338525      21.370952      20.148727    
      3500   384.70385     -1960.6014      21.432283     -1939.1691      371.83373      5300.5481      12.328926      21.354327      20.133053    
      4000   391.32279     -1957.7496      21.801032     -1935.9486     -1572.2862      5298.7376      12.327523      21.351895      20.13076     
      4500   390.91706     -1956.6245      21.778428     -1934.846      -8755.7441      5339.3195      12.358914      21.406267      20.182022    
      5000   399.14095     -1956.1822      22.236591     -1933.9457      1841.7012      5316.2945      12.341123      21.375452      20.152969    
      5500   417.26411     -1958.5963      23.246252     -1935.35        4177.4658      5283.2899      12.315531      21.331126      20.111178    
      6000   397.67052     -1959.6832      22.154671     -1937.5286     -1073.4826      5302.9925      12.330821      21.357609      20.136147    
      6500   382.13045     -1958.2915      21.288916     -1937.0026      2850.4316      5295.1595      12.324747      21.347088      20.126228    
      7000   408.14872     -1958.4062      22.738423     -1935.6678     -3892.9512      5324.6584      12.347591      21.386656      20.163532    
      7500   385.83056     -1958.62        21.495054     -1937.125       5745.0427      5271.8764      12.306656      21.315754      20.096686    
      8000   387.27658     -1958.4432      21.575613     -1936.8676     -1818.389       5310.872       12.336926      21.368182      20.146115    
      8500   401.32023     -1957.5885      22.358        -1935.2305     -1261.7496      5304.7834      12.332209      21.360013      20.138413    
      9000   409.09255     -1958.9564      22.791005     -1936.1654     -2844.3292      5312.1735      12.337933      21.369927      20.147761    
      9500   377.78281     -1958.5318      21.046704     -1937.4851      2456.6987      5295.3097      12.324864      21.34729       20.126418    
     10000   410.82933     -1958.9462      22.887763     -1936.0585     -1490.9953      5298.493       12.327333      21.351567      20.13045     
     10500   417.2721      -1958.0087      23.246697     -1934.762      -3078.1176      5320.0545      12.344032      21.38049       20.157719    
     11000   392.31313     -1957.6628      21.856205     -1935.8066     -5407.7429      5327.3148      12.349644      21.390212      20.166885    
     11500   408.03771     -1958.9256      22.732239     -1936.1933     -621.63579      5305.6979      12.332918      21.361241      20.139571    
     12000   374.27155     -1957.7457      20.851088     -1936.8946      3173.6091      5289.5828      12.320419      21.339592      20.11916     
     12500   419.00837     -1958.8279      23.343427     -1935.4845     -5949.7392      5326.6014      12.349093      21.389257      20.165985    
     13000   407.58361     -1959.5891      22.70694      -1936.8821      4793.9847      5280.9228      12.313692      21.32794       20.108174    
     13500   392.46189     -1960.0559      21.864492     -1938.1914     -6150.4687      5322.8526      12.346195      21.384238      20.161253    
     14000   395.35969     -1956.8158      22.025932     -1934.7899      2917.4226      5290.3356      12.321003      21.340604      20.120114    
     14500   430.00005     -1958.6484      23.955785     -1934.6926     -5679.3046      5315.5899      12.340578      21.374508      20.152079    
     15000   396.13133     -1960.39        22.068921     -1938.3211      3719.3521      5286.3719      12.317925      21.335273      20.115088    
     15500   392.45768     -1959.921       21.864258     -1938.0567     -2826.535       5299.3981      12.328035      21.352783      20.131596    
     16000   400.25639     -1958.584       22.298733     -1936.2852      7442.7086      5263.8714      12.300424      21.30496       20.086509    
     16500   405.31052     -1959.951       22.580304     -1937.3707     -12093.799      5326.9795      12.349385      21.389763      20.166462    
     17000   370.52683     -1959.0856      20.642465     -1938.4431      2002.8843      5283.3166      12.315552      21.331162      20.111212    
     17500   396.47972     -1959.2783      22.088331     -1937.19       -299.38543      5307.3656      12.33421       21.363478      20.141681    
     18000   399.2229      -1957.834       22.241156     -1935.5928     -5855.7019      5316.6663      12.341411      21.37595       20.153439    
     18500   423.76919     -1960.0103      23.608657     -1936.4017      4410.96        5271.2399      12.306161      21.314896      20.095877    
     19000   392.47263     -1959.5315      21.865091     -1937.6664      176.96796      5300.8284      12.329144      21.354703      20.133407    
     19500   397.35512     -1961.2709      22.1371       -1939.1338     -2504.188       5293.7437      12.323649      21.345185      20.124434    
     20000   389.33118     -1958.6456      21.690077     -1936.9555     -2625.4996      5302.1173      12.330143      21.356434      20.135039    
     20500   409.93441     -1959.1642      22.837906     -1936.3263     -3582.6133      5300.0929      12.328574      21.353716      20.132476    
     21000   418.87292     -1959.2038      23.335881     -1935.8679     -2622.7561      5308.1682      12.334832      21.364555      20.142696    
     21500   374.15602     -1960.8338      20.844652     -1939.9891      2188.4676      5274.4599      12.308666      21.319236      20.099968    
     22000   393.25154     -1960.4125      21.908485     -1938.504       321.41929      5281.2184      12.313921      21.328337      20.108549    
     22500   397.20853     -1959.2537      22.128933     -1937.1248     -251.36259      5289.2247      12.320141      21.33911       20.118706    
     23000   397.75833     -1961.1041      22.159563     -1938.9446     -1188.159       5291.8935      12.322213      21.342698      20.122089    
     23500   393.94533     -1962.9665      21.947137     -1941.0194     -44.932077      5280.9812      12.313737      21.328018      20.108248    
     24000   397.9328      -1963.333       22.169283     -1941.1637      771.76328      5272.4032      12.307066      21.316464      20.097355    
     24500   397.3433      -1962.4456      22.136441     -1940.3091     -13123.827      5326.9735      12.349381      21.389755      20.166454    
     25000   419.85613     -1961.6917      23.390656     -1938.301       1404.2961      5285.498       12.317247      21.334097      20.11398     
     25500   421.67966     -1962.8477      23.492247     -1939.3555      3036.728       5268.7341      12.304211      21.311518      20.092692    
     26000   389.51287     -1963.1298      21.700199     -1941.4296     -620.94326      5277.1784      12.310781      21.322898      20.103421    
     26500   378.82776     -1960.96        21.10492      -1939.8551      836.19216      5278.1463      12.311533      21.324201      20.10465     
     27000   376.53811     -1963.0676      20.977361     -1942.0902      2215.0387      5264.7177      12.301083      21.306101      20.087585    
     27500   391.62919     -1963.9544      21.818102     -1942.1363     -7327.0496      5292.3694      12.322582      21.343338      20.122692    
     28000   387.98504     -1963.3149      21.615082     -1941.6998      10515.627      5245.3289      12.285964      21.279914      20.062895    
     28500   419.0009      -1962.2859      23.34301      -1938.9429     -1254.6766      5292.5519      12.322724      21.343583      20.122923    
     29000   418.67338     -1963.1703      23.324764     -1939.8456     -723.62059      5285.5908      12.317319      21.334222      20.114097    
     29500   399.69807     -1962.4426      22.267628     -1940.175       6706.4923      5260.341       12.297674      21.300196      20.082017    
     30000   402.123       -1963.5354      22.402723     -1941.1327      1293.6915      5279.6816      12.312727      21.326269      20.106599    
     30500   370.67045     -1964.6         20.650467     -1943.9496     -3517.547       5289.9691      12.320719      21.340111      20.11965     
     31000   384.47431     -1963.2424      21.419495     -1941.8229     -3933.7975      5282.9983      12.315305      21.330733      20.110808    
     31500   405.18123     -1963.1966      22.573101     -1940.6235      2596.3548      5276.4355      12.310203      21.321897      20.102477    
     32000   420.0923      -1963.2333      23.403813     -1939.8295     -2393.6139      5294.428       12.32418       21.346105      20.125301    
     32500   401.36805     -1963.5742      22.360664     -1941.2136      5483.8536      5277.7318      12.311211      21.323643      20.104123    
     33000   427.35603     -1964.0842      23.808484     -1940.2757     -3282.853       5283.1424      12.315417      21.330927      20.110991    
     33500   419.78951     -1962.8024      23.386945     -1939.4154      4749.3751      5268.2329      12.303821      21.310842      20.092055    
     34000   391.42058     -1962.9727      21.80648      -1941.1662     -7370.8735      5310.9091      12.336954      21.368232      20.146162    
     34500   416.23738     -1964.8762      23.189052     -1941.6871      27.140681      5278.9125      12.312129      21.325233      20.105622    
     35000   409.32476     -1964.0715      22.803942     -1941.2676      7263.9366      5257.9892      12.295841      21.297021      20.079024    
     35500   387.03314     -1962.9772      21.562051     -1941.4152     -8216.935       5313.6676      12.33909       21.371931      20.149649    
     36000   398.42705     -1963.035       22.196818     -1940.8381      5556.1171      5271.6183      12.306456      21.315406      20.096358    
     36500   389.78018     -1963.0715      21.715091     -1941.3564     -5129.8539      5297.7609      12.326765      21.350583      20.129523    
     37000   394.62419     -1965.811       21.984957     -1943.826      -4666.2837      5294.5109      12.324244      21.346217      20.125406    
     37500   388.5882      -1963.6166      21.648685     -1941.9679      1016.0161      5274.9879      12.309077      21.319947      20.100639    
     38000   411.16835     -1963.5637      22.90665      -1940.6571     -4100.3678      5302.1499      12.330168      21.356478      20.13508     
     38500   427.75394     -1962.3219      23.830652     -1938.4913      3584.83        5275.675       12.309612      21.320873      20.101511    
     39000   396.13443     -1961.6475      22.069094     -1939.5784      1990.722       5279.9505      12.312936      21.326631      20.10694     
     39500   401.91403     -1963.4111      22.391082     -1941.0201      123.38927      5271.1297      12.306075      21.314748      20.095737    
     40000   394.87853     -1963.2763      21.999126     -1941.2772     -2662.0204      5299.462       12.328084      21.352868      20.131677    
     40500   417.72226     -1962.8157      23.271776     -1939.5439      631.91497      5286.6816      12.318166      21.335689      20.115481    
     41000   413.13377     -1962.8661      23.016146     -1939.8499      899.13583      5285.3914      12.317164      21.333954      20.113844    
     41500   370.88689     -1962.761       20.662525     -1942.0985      69.278744      5281.0142      12.313763      21.328063      20.10829     
     42000   409.62348     -1963.6737      22.820584     -1940.8531      441.15895      5282.8042      12.315154      21.330472      20.110562    
     42500   434.61587     -1963.7632      24.212938     -1939.5503     -9169.9007      5309.5156      12.335875      21.366363      20.1444      
     43000   431.09474     -1962.4416      24.016772     -1938.4248      1969.3464      5273.0989      12.307608      21.317402      20.098239    
     43500   423.95632     -1964.0698      23.619083     -1940.4507     -1422.1623      5296.0377      12.325428      21.348268      20.12734     
     44000   401.99193     -1964.069       22.395422     -1941.6735      159.25791      5279.1186      12.312289      21.32551       20.105884    
     44500   385.71735     -1963.5268      21.488747     -1942.0381      1036.2291      5281.2107      12.313915      21.328327      20.10854     
     45000   393.5579      -1963.1609      21.925552     -1941.2354      896.51826      5282.3412      12.314794      21.329849      20.109974    
     45500   428.84245     -1963.6515      23.891294     -1939.7602     -401.37327      5282.7891      12.315142      21.330452      20.110543    
     46000   426.04541     -1963.193       23.735468     -1939.4576     -7344.3672      5306.227       12.333328      21.361951      20.14024     
     46500   423.97234     -1962.3755      23.619975     -1938.7555      663.42968      5281.3312      12.314009      21.328489      20.108693    
     47000   385.38994     -1963.5906      21.470506     -1942.1201     -5447.0954      5297.2879      12.326398      21.349948      20.128924    
     47500   402.76452     -1964.1018      22.438463     -1941.6633      5262.6714      5266.399       12.302393      21.308369      20.089723    
     48000   421.17549     -1963.2764      23.464159     -1939.8123      1192.6568      5275.5485      12.309513      21.320702      20.101351    
     48500   400.58155     -1962.5383      22.316848     -1940.2214     -8862.1979      5293.1333      12.323175      21.344365      20.12366     
     49000   396.80489     -1963.4875      22.106446     -1941.3811      3240.9294      5249.6576      12.289343      21.285766      20.068413    
     49500   400.84927     -1964.9536      22.331763     -1942.6218     -2567.4376      5273.8291      12.308176      21.318386      20.099167    
     50000   394.80272     -1963.9306      21.994903     -1941.9357      1540.7622      5268.7152      12.304196      21.311493      20.092668    
Loop time of 1046.16 on 8 procs for 50000 steps with 432 atoms

Performance: 4.129 ns/day, 5.812 hours/ns, 47.794 timesteps/s, 20.647 katom-step/s
91.1% CPU use with 1 MPI tasks x 8 OpenMP threads

MPI task timing breakdown:
Section |  min time  |  avg time  |  max time  |%varavg| %total
---------------------------------------------------------------
Pair    | 966.98     | 966.98     | 966.98     |   0.0 | 92.43
Neigh   | 0.020844   | 0.020844   | 0.020844   |   0.0 |  0.00
Comm    | 0.97019    | 0.97019    | 0.97019    |   0.0 |  0.09
Output  | 0.013952   | 0.013952   | 0.013952   |   0.0 |  0.00
Modify  | 78.038     | 78.038     | 78.038     |   0.0 |  7.46
Other   |            | 0.1443     |            |       |  0.01

Nlocal:            432 ave         432 max         432 min
Histogram: 1 0 0 0 0 0 0 0 0 0
Nghost:           2639 ave        2639 max        2639 min
Histogram: 1 0 0 0 0 0 0 0 0 0
Neighs:          37329 ave       37329 max       37329 min
Histogram: 1 0 0 0 0 0 0 0 0 0
FullNghs:        74658 ave       74658 max       74658 min
Histogram: 1 0 0 0 0 0 0 0 0 0

Total # of neighbors = 74658
Ave neighs/atom = 172.81944
Neighbor list builds = 7
Dangerous builds = 0

=== FINAL RESULTS: HCP at 400 K ===
Atoms: 432 | PE/atom: -4.54512350379855 eV/atom
WARNING: Detected non-ASCII characters in input. Will try to continue by replacing with ASCII equivalents where known. (src/input.cpp:479)
Volume: 5268.71516899793 …³ | Area: 262.220784475885 ²
==========================================
HCP 400 432 -4.54512350379855 5268.71516899793 12.3041960528654 21.3114927094175 20.0926680145848 262.220784475885
Simulation complete!
Total wall time: 0:24:17
