LAMMPS (10 Sep 2025)
  using 8 OpenMP thread(s) per MPI task
Loaded 1 plugins from C:\Users\J.Shiva\AppData\Local\LAMMPS 64-bit 10Sep2025\plugins
using multi-threaded neighbor list subroutines
Reading data file ...
  orthogonal box = (0 0 0) to (15.665951 27.134223 25.58239)
  1 by 1 by 1 MPI processor grid
  reading atoms ...
  432 atoms
  read_data CPU = 0.005 seconds
=== STAGE 1: Energy Minimization ===
Switching to 'neigh_modify every 1 delay 0 check yes' setting during minimization
No /omp style for force computation currently active
Neighbor list info ...
  update: every = 1 steps, delay = 0 steps, check = yes
  max neighbors/atom: 4000, page size: 100000
  master list distance cutoff = 8
  ghost atom cutoff = 8
  binsize = 4, bins = 4 7 7
  2 neighbor lists, perpetual/occasional/extra = 2 0 0
  (1) pair meam, perpetual
      attributes: full, newton on, omp
      pair build: full/bin/atomonly/omp
      stencil: full/bin/3d
      bin: standard
  (2) pair meam, perpetual, half/full from (1)
      attributes: half, newton on, omp
      pair build: halffull/newton/omp
      stencil: none
      bin: none
Setting up cg style minimization ...
  Unit style    : metal
  Current step  : 0
Per MPI rank memory allocation (min/avg/max) = 19.35 | 19.35 | 19.35 Mbytes
   Step          Temp          PotEng         KinEng         TotEng         Press          Volume           Lx             Ly             Lz      
         0   0             -1202.8829      0             -1202.8829     -64729.562      10874.649      15.665951      27.134223      25.58239     
       228   0             -1573.7972      0             -1573.7972     -53957.972      10874.649      15.665951      27.134223      25.58239     
Loop time of 2.17012 on 8 procs for 228 steps with 432 atoms

91.4% CPU use with 1 MPI tasks x 8 OpenMP threads

Minimization stats:
  Stopping criterion = energy tolerance
  Energy initial, next-to-last, final = 
     -1202.88293886332  -1573.79609818111  -1573.79715862274
  Force two-norm initial, final = 47.567496 19.834293
  Force max component initial, final = 6.7220095 5.4453637
  Final line search alpha, max atom move = 0.0010151757 0.005528001
  Iterations, force evaluations = 228 593

MPI task timing breakdown:
Section |  min time  |  avg time  |  max time  |%varavg| %total
---------------------------------------------------------------
Pair    | 2.0158     | 2.0158     | 2.0158     |   0.0 | 92.89
Neigh   | 0.007079   | 0.007079   | 0.007079   |   0.0 |  0.33
Comm    | 0.003478   | 0.003478   | 0.003478   |   0.0 |  0.16
Output  | 0          | 0          | 0          |   0.0 |  0.00
Modify  | 0.13698    | 0.13698    | 0.13698    |   0.0 |  6.31
Other   |            | 0.006793   |            |       |  0.31

Nlocal:            432 ave         432 max         432 min
Histogram: 1 0 0 0 0 0 0 0 0 0
Nghost:           1815 ave        1815 max        1815 min
Histogram: 1 0 0 0 0 0 0 0 0 0
Neighs:          18295 ave       18295 max       18295 min
Histogram: 1 0 0 0 0 0 0 0 0 0
FullNghs:        36590 ave       36590 max       36590 min
Histogram: 1 0 0 0 0 0 0 0 0 0

Total # of neighbors = 36590
Ave neighs/atom = 84.699074
Neighbor list builds = 7
Dangerous builds = 0
Minimized PE/atom: -3.64304897829338 eV/atom
=== STAGE 2: NPT Equilibration at 650 K ===
No /omp style for force computation currently active
Setting up Verlet run ...
  Unit style    : metal
  Current step  : 0
  Time step     : 0.002
Per MPI rank memory allocation (min/avg/max) = 18.24 | 18.24 | 18.24 Mbytes
   Step          Temp          PotEng         KinEng         TotEng         Press          Volume           Lx             Ly             Lz      
         0   650           -1573.7972      36.21223      -1537.5849     -50401.174      10874.649      15.665951      27.134223      25.58239     
       500   1148.3326     -1780.1472      63.974899     -1716.1723     -17518.843      6507.4069      13.20143       22.865548      21.557846    
      1000   677.10101     -1881.6278      37.722057     -1843.9058     -9538.1475      5743.1146      12.662929      21.932836      20.678476    
      1500   635.19839     -1912.2921      35.387616     -1876.9045     -4251.5583      5542.3665      12.513633      21.674248      20.434677    
      2000   667.29978     -1919.4025      37.17602      -1882.2265      1503.7482      5518.6164      12.495733      21.643244      20.405447    
      2500   661.15926     -1925.7989      36.833924     -1888.965       3809.7942      5449.7007      12.4435        21.552774      20.32015     
      3000   664.67673     -1927.4839      37.029887     -1890.4541      3499.1758      5443.3229      12.438644      21.544363      20.31222     
      3500   672.28346     -1931.6211      37.453666     -1894.1675      3386.8296      5452.9489      12.445972      21.557055      20.324187    
      4000   643.18906     -1936.405       35.832785     -1900.5722     -1995.3343      5412.6715      12.415253      21.503848      20.274023    
      4500   626.00934     -1938.5429      34.875683     -1903.6672      7039.9641      5360.697       12.375386      21.434797      20.208921    
      5000   627.57049     -1940.5224      34.962656     -1905.5597      3004.0636      5378.8611      12.389348      21.45898       20.23172     
      5500   662.19663     -1945.3993      36.891718     -1908.5076      6652.3495      5344.3755      12.362814      21.413021      20.18839     
      6000   654.56064     -1945.8496      36.466308     -1909.3833      3438.3482      5331.6719      12.35301       21.396042      20.172382    
      6500   617.66025     -1947.7396      34.410546     -1913.3291      2483.2392      5325.1402      12.347964      21.387301      20.164141    
      7000   652.14165     -1951.2236      36.331543     -1914.892      -5373.5555      5337.9025      12.35782       21.404373      20.180236    
      7500   642.36835     -1949.7541      35.787062     -1913.967      -985.19989      5329.0367      12.350975      21.392516      20.169058    
      8000   679.79704     -1949.9838      37.872256     -1912.1116      3450.9555      5316.5615      12.34133       21.37581       20.153307    
      8500   601.42624     -1953.9703      33.506131     -1920.4642      2045.5785      5301.9712      12.33003       21.356238      20.134854    
      9000   642.54314     -1953.7948      35.7968       -1917.998      -4399.2627      5326.0962      12.348703      21.388581      20.165347    
      9500   663.57047     -1952.139       36.968256     -1915.1708     -195.61146      5319.9374      12.343941      21.380333      20.157571    
     10000   659.33739     -1950.8412      36.732426     -1914.1088     -583.67079      5319.1067      12.343299      21.37922       20.156522    
     10500   661.27253     -1951.6012      36.840235     -1914.7609     -5344.6945      5342.9986      12.361752      21.411182      20.186656    
     11000   638.95338     -1954.3271      35.59681      -1918.7303     -4209.9332      5323.9675      12.347057      21.385731      20.16266     
     11500   645.02097     -1952.7465      35.934843     -1916.8116      7650.0481      5287.3433      12.31868       21.33658       20.11632     
     12000   621.25513     -1954.7197      34.610821     -1920.1089      1547.3368      5281.1291      12.313852      21.328217      20.108436    
     12500   654.84171     -1954.6413      36.481966     -1918.1594      8480.8452      5269.8233      12.305059      21.312987      20.094077    
     13000   660.55357     -1953.032       36.800181     -1916.2318      7858.449       5283.9376      12.316034      21.331997      20.112       
     13500   629.85906     -1952.1352      35.090155     -1917.045      -5151.9012      5324.5626      12.347517      21.386527      20.163411    
     14000   587.16528     -1955.24        32.711637     -1922.5283     -133.15714      5299.1319      12.327828      21.352425      20.131259    
     14500   655.52492     -1953.2103      36.520029     -1916.6903      987.51525      5311.2794      12.337241      21.368728      20.14663     
     15000   688.29476     -1957.0263      38.345673     -1918.6807      10487.267      5258.8016      12.296474      21.298118      20.080058    
     15500   653.04536     -1956.0866      36.38189      -1919.7047      3634.3742      5266.6711      12.302605      21.308736      20.090069    
     16000   662.78268     -1959.8522      36.924367     -1922.9279     -1597.2034      5283.3611      12.315587      21.331222      20.111269    
     16500   605.91397     -1958.707       33.756147     -1924.9508     -6769.9376      5300.1577      12.328624      21.353803      20.132558    
     17000   647.72059     -1958.5785      36.085241     -1922.4933     -1546.9735      5302.1547      12.330172      21.356484      20.135087    
     17500   586.1529      -1959.2324      32.655236     -1926.5772      1819.4935      5269.4969      12.304805      21.312547      20.093662    
     18000   633.36209     -1962.7265      35.285313     -1927.4411      4173.7915      5256.9827      12.295056      21.295662      20.077743    
     18500   662.74678     -1959.7412      36.922367     -1922.8189     -2253.4341      5291.5635      12.321957      21.342255      20.121671    
     19000   675.07448     -1958.7079      37.609157     -1921.0987     -7382.8566      5307.3084      12.334166      21.363402      20.141608    
     19500   624.35442     -1958.5343      34.783486     -1923.7508     -6354.12        5317.8121      12.342297      21.377486      20.154887    
     20000   622.51333     -1961.6841      34.680916     -1927.0032     -599.71762      5286.6213      12.318119      21.335608      20.115404    
Loop time of 175.761 on 8 procs for 20000 steps with 432 atoms

Performance: 19.663 ns/day, 1.221 hours/ns, 113.791 timesteps/s, 49.158 katom-step/s
88.9% CPU use with 1 MPI tasks x 8 OpenMP threads

MPI task timing breakdown:
Section |  min time  |  avg time  |  max time  |%varavg| %total
---------------------------------------------------------------
Pair    | 153.17     | 153.17     | 153.17     |   0.0 | 87.15
Neigh   | 0.039447   | 0.039447   | 0.039447   |   0.0 |  0.02
Comm    | 0.16143    | 0.16143    | 0.16143    |   0.0 |  0.09
Output  | 0.00316    | 0.00316    | 0.00316    |   0.0 |  0.00
Modify  | 22.356     | 22.356     | 22.356     |   0.0 | 12.72
Other   |            | 0.03067    |            |       |  0.02

Nlocal:            432 ave         432 max         432 min
Histogram: 1 0 0 0 0 0 0 0 0 0
Nghost:           2721 ave        2721 max        2721 min
Histogram: 1 0 0 0 0 0 0 0 0 0
Neighs:          37382 ave       37382 max       37382 min
Histogram: 1 0 0 0 0 0 0 0 0 0
FullNghs:        74764 ave       74764 max       74764 min
Histogram: 1 0 0 0 0 0 0 0 0 0

Total # of neighbors = 74764
Ave neighs/atom = 173.06481
Neighbor list builds = 44
Dangerous builds = 0
=== STAGE 3: NPT Production at 650 K ===
No /omp style for force computation currently active
Setting up Verlet run ...
  Unit style    : metal
  Current step  : 0
  Time step     : 0.001
Per MPI rank memory allocation (min/avg/max) = 18.9 | 18.9 | 18.9 Mbytes
   Step          Temp          PotEng         KinEng         TotEng         Press          Volume           Lx             Ly             Lz      
         0   622.51333     -1961.6841      34.680916     -1927.0032     -599.71762      5286.6213      12.318119      21.335608      20.115404    
       500   687.58282     -1961.1192      38.30601      -1922.8132      3818.483       5264.3477      12.300795      21.305602      20.087115    
      1000   649.84205     -1960.3025      36.20343      -1924.0991      7355.555       5264.8286      12.30117       21.306251      20.087726    
      1500   671.47892     -1961.4381      37.408844     -1924.0292     -1417.2486      5282.2167      12.314697      21.329681      20.109816    
      2000   670.94689     -1959.7294      37.379204     -1922.3502      951.77365      5278.3479      12.31169       21.324473      20.104906    
      2500   646.01875     -1960.6541      35.99043      -1924.6637     -2501.1799      5261.0241      12.298206      21.301118      20.082886    
      3000   667.12903     -1962.3245      37.166507     -1925.158      -5192.2884      5264.1997      12.30068       21.305403      20.086926    
      3500   632.98604     -1958.5093      35.264363     -1923.2449     -6911.1593      5278.7622      12.312012      21.325031      20.105432    
      4000   672.67396     -1955.546       37.475422     -1918.0706     -4229.185       5293.5425      12.323492      21.344915      20.124179    
      4500   657.50497     -1959.4527      36.63034      -1922.8224      1419.0171      5251.0806      12.290453      21.287689      20.070226    
      5000   665.5344      -1961.6738      37.077669     -1924.5961      6256.6575      5235.5553      12.278329      21.266689      20.050427    
      5500   664.49788     -1960.73        37.019923     -1923.71       -1353.1523      5267.2566      12.303061      21.309526      20.090814    
      6000   630.42545     -1957.6333      35.121709     -1922.5116     -12623.967      5310.8817      12.336933      21.368195      20.146128    
      6500   641.10097     -1960.4843      35.716455     -1924.7678     -7280.1165      5288.8869      12.319879      21.338656      20.118277    
      7000   626.87244     -1962.961       34.923767     -1928.0372     -2718.2748      5255.2373      12.293695      21.293305      20.07552     
      7500   651.87673     -1963.2466      36.316785     -1926.9298      275.76563      5236.1972      12.27883       21.267558      20.051246    
      8000   676.00696     -1959.453       37.661106     -1921.7919      5787.3292      5233.6611      12.276848      21.264124      20.048008    
      8500   641.74302     -1959.8949      35.752224     -1924.1427      3053.6554      5265.7961      12.301923      21.307556      20.088957    
      9000   635.35087     -1962.5638      35.39611      -1927.1677     -3755.8486      5264.235       12.300707      21.30545       20.086971    
      9500   650.1627      -1962.2114      36.221294     -1925.9901     -4208.2993      5264.6267      12.301013      21.305979      20.087469    
     10000   614.74117     -1963.8199      34.247921     -1929.572       220.34957      5244.2418      12.285115      21.278444      20.061509    
     10500   632.06716     -1964.2337      35.213171     -1929.0205     -5156.6045      5266.5581      12.302517      21.308584      20.089926    
     11000   618.30471     -1963.1141      34.44645      -1928.6677     -4240.8523      5279.1554      12.312318      21.32556       20.105931    
     11500   664.34269     -1962.4528      37.011277     -1925.4415     -6067.1771      5273.9251      12.30825       21.318515      20.099289    
     12000   690.60622     -1964.252       38.474448     -1925.7775     -7057.9864      5276.1578      12.309987      21.321523      20.102125    
     12500   585.80364     -1960.5805      32.635778     -1927.9448     -3784.3773      5277.7845      12.311252      21.323714      20.10419     
     13000   624.19977     -1963.2912      34.77487      -1928.5163     -583.83592      5256.1939      12.294441      21.294597      20.076738    
     13500   655.27933     -1963.1331      36.506347     -1926.6268      4018.1008      5249.258       12.289031      21.285226      20.067904    
     14000   652.36272     -1962.9291      36.34386      -1926.5852     -2825.4561      5264.817       12.301161      21.306236      20.087712    
     14500   627.48996     -1962.7442      34.95817      -1927.7861      8629.1754      5233.6857      12.276867      21.264157      20.04804     
     15000   679.16721     -1963.7721      37.837168     -1925.9349     -9821.5441      5270.2291      12.305374      21.313534      20.094592    
     15500   675.14621     -1961.8138      37.613153     -1924.2007      3309.2935      5248.2155      12.288217      21.283817      20.066575    
     16000   601.0384      -1961.002       33.484524     -1927.5175     -4398.8699      5261.0849      12.298253      21.3012        20.082964    
     16500   655.24702     -1965.6361      36.504547     -1929.1316     -1184.1005      5250.8439      12.290269      21.28737       20.069924    
     17000   639.70281     -1962.9032      35.638562     -1927.2647      2309.4371      5244.9823      12.285694      21.279445      20.062453    
     17500   685.67923     -1964.5932      38.199959     -1926.3932     -2331.2894      5253.5242      12.292359      21.290991      20.073339    
     18000   613.59772     -1963.109       34.184218     -1928.9248     -9819.355       5282.4789      12.314901      21.330034      20.110149    
     18500   655.29979     -1965.4226      36.507487     -1928.9151     -3068.3358      5251.7549      12.290979      21.2886        20.071085    
     19000   665.36408     -1964.9383      37.06818      -1927.8701      622.28295      5244.6095      12.285402      21.278941      20.061978    
     19500   640.9813      -1960.8638      35.709788     -1925.154       1279.5977      5257.0006      12.29507       21.295686      20.077766    
     20000   669.59228     -1963.7148      37.303738     -1926.411       788.67573      5251.6434      12.290892      21.28845       20.070943    
     20500   631.18784     -1964.0473      35.164183     -1928.8831     -1415.7652      5248.653       12.288559      21.284408      20.067133    
     21000   674.35444     -1964.8959      37.569043     -1927.3268     -745.39981      5245.7243      12.286273      21.280449      20.0634      
     21500   676.7182      -1962.8092      37.700731     -1925.1085     -7635.6828      5275.2304      12.309266      21.320274      20.100947    
     22000   636.45076     -1964.1914      35.457387     -1928.734       39.703544      5262.2106      12.299131      21.302719      20.084396    
     22500   639.62995     -1964.4174      35.634503     -1928.7829      353.25458      5251.0131      12.290401      21.287598      20.07014     
     23000   658.27368     -1967.7072      36.673166     -1931.034       3323.7972      5221.4543      12.267296      21.247579      20.03241     
     23500   637.18091     -1965.2541      35.498064     -1929.756       2822.1032      5238.0134      12.28025       21.270017      20.053564    
     24000   698.7588      -1965.3653      38.928637     -1926.4367     -5282.5264      5267.9827      12.303626      21.310505      20.091737    
     24500   672.23421     -1964.3373      37.450923     -1926.8863     -7689.385       5282.9355      12.315256      21.330649      20.110729    
     25000   619.63264     -1965.2816      34.52043      -1930.7612     -6492.3251      5256.167       12.29442       21.294561      20.076704    
     25500   643.24385     -1968.0438      35.835837     -1932.208       836.75847      5232.3049      12.275787      21.262287      20.046277    
     26000   662.01308     -1964.0031      36.881492     -1927.1216     -1431.4261      5251.3493      12.290663      21.288052      20.070568    
     26500   684.16176     -1965.6298      38.115419     -1927.5144     -10626.509      5286.5024      12.318027      21.335448      20.115254    
     27000   564.59227     -1965.4685      31.454069     -1934.0145     -5639.7437      5260.1703      12.297541      21.299965      20.0818      
     27500   630.66537     -1965.6769      35.135076     -1930.5419     -535.67692      5234.0598      12.277159      21.264664      20.048517    
     28000   654.71145     -1964.9861      36.47471      -1928.5114      130.11887      5235.1375      12.278002      21.266123      20.049893    
     28500   697.43721     -1965.5575      38.85501      -1926.7025     -759.73165      5237.9868      12.280229      21.269981      20.05353     
     29000   619.14272     -1964.5042      34.493136     -1930.011       917.88557      5252.8435      12.291828      21.290071      20.072472    
     29500   615.43716     -1963.3345      34.286695     -1929.0478      724.19784      5242.8423      12.284022      21.276551      20.059725    
     30000   670.75372     -1963.9835      37.368443     -1926.615      -2723.5965      5260.7012      12.297954      21.300682      20.082476    
     30500   625.75377     -1963.4245      34.861445     -1928.5631     -6785.0677      5281.1715      12.313885      21.328274      20.10849     
     31000   602.67846     -1964.8308      33.575894     -1931.2549     -9062.1443      5282.4392      12.31487       21.329981      20.110099    
     31500   668.50972     -1965.6595      37.243427     -1928.4161     -2812.5925      5251.059       12.290436      21.28766       20.070198    
     32000   637.9466      -1961.4505      35.540721     -1925.9097      11976.427      5221.9978      12.267721      21.248316      20.033105    
     32500   667.43674     -1966.7657      37.18365      -1929.5821     -3656.3782      5254.2764      12.292946      21.292007      20.074297    
     33000   671.09243     -1967.8372      37.387312     -1930.4498      41.145528      5250.4334      12.289948      21.286815      20.069401    
     33500   604.87776     -1966.7048      33.698419     -1933.0063     -3918.3852      5251.6825      12.290923      21.288503      20.070993    
     34000   639.6945      -1964.3075      35.638099     -1928.6694     -4599.553       5258.7459      12.296431      21.298043      20.079987    
     34500   652.65894     -1965.2436      36.360362     -1928.8832     -11818.599      5290.6147      12.32122       21.340979      20.120468    
     35000   685.25281     -1967.5339      38.176203     -1929.3577     -3249.882       5252.6449      12.291674      21.289803      20.072219    
     35500   651.23628     -1962.9216      36.281104     -1926.6405     -4236.2632      5252.9595      12.291919      21.290228      20.072619    
     36000   704.68728     -1963.1133      39.25892      -1923.8544     -6543.7563      5260.3747      12.2977        21.300241      20.08206     
     36500   665.61607     -1966.5714      37.082218     -1929.4892      2128.6506      5228.8722      12.273102      21.257636      20.041892    
     37000   645.80428     -1967.1669      35.978481     -1931.1885      6892.9786      5225.5556      12.270507      21.253141      20.037653    
     37500   603.32179     -1965.0771      33.611734     -1931.4653      4244.7062      5218.9614      12.265343      21.244197      20.029221    
     38000   672.36175     -1967.5216      37.458028     -1930.0635     -586.62091      5253.4584      12.292308      21.290902      20.073255    
     38500   646.65395     -1964.6331      36.025817     -1928.6073     -984.17728      5252.1759      12.291308      21.289169      20.071621    
     39000   644.38232     -1967.4742      35.899262     -1931.5749     -4430.6138      5254.2621      12.292935      21.291988      20.074279    
     39500   626.84872     -1964.5511      34.922446     -1929.6287     -3873.4758      5257.5262      12.29548       21.296396      20.078435    
     40000   677.2718      -1967.7712      37.731572     -1930.0397     -8119.1459      5271.2327      12.306155      21.314887      20.095868    
     40500   664.96187     -1964.9048      37.045772     -1927.859      -1693.8767      5246.7956      12.287109      21.281897      20.064765    
     41000   656.78029     -1966.2996      36.589967     -1929.7096      7915.5506      5223.9481      12.269248      21.250961      20.035598    
     41500   628.293       -1968.2412      35.002908     -1933.2382     -1308.4021      5235.5722      12.278342      21.266712      20.050448    
     42000   653.61959     -1967.0237      36.413881     -1930.6098     -9402.0183      5268.3272      12.303894      21.31097       20.092175    
     42500   650.10893     -1966.3092      36.218298     -1930.0909     -6713.02        5267.7904      12.303476      21.310246      20.091492    
     43000   670.24567     -1964.3562      37.340138     -1927.0161     -6821.1234      5277.2856      12.310864      21.323042      20.103557    
     43500   614.87749     -1963.9131      34.255515     -1929.6575     -724.68035      5253.4609      12.29231       21.290905      20.073258    
     44000   622.7557      -1966.3468      34.694419     -1931.6524     -4991.8259      5241.5512      12.283014      21.274804      20.058078    
     44500   605.73612     -1962.4664      33.746239     -1928.7201     -9061.6607      5279.2722      12.312409      21.325717      20.106079    
     45000   689.68453     -1964.9117      38.423099     -1926.4886      1867.0813      5240.3847      12.282103      21.273226      20.05659     
     45500   675.34557     -1965.5995      37.62426      -1927.9752      7280.2244      5216.0896      12.263093      21.2403        20.025547    
     46000   640.1318      -1965.7448      35.662461     -1930.0824      3421.2041      5227.6828      12.272171      21.256024      20.040372    
     46500   638.05136     -1965.9516      35.546558     -1930.405      -1735.0618      5236.1985      12.278831      21.26756       20.051248    
     47000   640.64372     -1964.0957      35.690981     -1928.4047     -2129.9119      5240.1761      12.28194       21.272944      20.056324    
     47500   675.00907     -1969.4582      37.605513     -1931.8527     -3734.8395      5245.0933      12.28578       21.279596      20.062595    
     48000   651.87323     -1966.449       36.31659      -1930.1324     -287.53327      5229.497       12.273591      21.258483      20.04269     
     48500   652.655       -1965.469       36.360143     -1929.1088      329.69436      5240.5342      12.28222       21.273428      20.056781    
     49000   631.55095     -1966.3399      35.184412     -1931.1555     -5374.0563      5254.1825      12.292873      21.29188       20.074177    
     49500   622.21497     -1967.8404      34.664294     -1933.1761      278.37573      5234.1795      12.277253      21.264826      20.04867     
     50000   625.28272     -1964.2827      34.835202     -1929.4475     -2906.8053      5258.9377      12.29658       21.298302      20.080231    
Loop time of 465.789 on 8 procs for 50000 steps with 432 atoms

Performance: 9.275 ns/day, 2.588 hours/ns, 107.345 timesteps/s, 46.373 katom-step/s
88.3% CPU use with 1 MPI tasks x 8 OpenMP threads

MPI task timing breakdown:
Section |  min time  |  avg time  |  max time  |%varavg| %total
---------------------------------------------------------------
Pair    | 405.61     | 405.61     | 405.61     |   0.0 | 87.08
Neigh   | 0.010364   | 0.010364   | 0.010364   |   0.0 |  0.00
Comm    | 0.41336    | 0.41336    | 0.41336    |   0.0 |  0.09
Output  | 0.006848   | 0.006848   | 0.006848   |   0.0 |  0.00
Modify  | 59.679     | 59.679     | 59.679     |   0.0 | 12.81
Other   |            | 0.07069    |            |       |  0.02

Nlocal:            432 ave         432 max         432 min
Histogram: 1 0 0 0 0 0 0 0 0 0
Nghost:           2714 ave        2714 max        2714 min
Histogram: 1 0 0 0 0 0 0 0 0 0
Neighs:          37712 ave       37712 max       37712 min
Histogram: 1 0 0 0 0 0 0 0 0 0
FullNghs:        75424 ave       75424 max       75424 min
Histogram: 1 0 0 0 0 0 0 0 0 0

Total # of neighbors = 75424
Ave neighs/atom = 174.59259
Neighbor list builds = 12
Dangerous builds = 0

=== FINAL RESULTS: DHCP at 650 K ===
Atoms: 432 | PE/atom: -4.55100436437089 eV/atom
WARNING: Detected non-ASCII characters in input. Will try to continue by replacing with ASCII equivalents where known. (src/input.cpp:479)
Volume: 5258.93770826481 …³ | Area: 261.896271828658 ²
==========================================
DHCP 650 432 -4.55100436437089 5258.93770826481 12.2965801360825 21.2983015546056 20.0802312745612 261.896271828658
Simulation complete!
Total wall time: 0:10:43
