LAMMPS (10 Sep 2025)
  using 8 OpenMP thread(s) per MPI task
Loaded 1 plugins from C:\Users\J.Shiva\AppData\Local\LAMMPS 64-bit 10Sep2025\plugins
using multi-threaded neighbor list subroutines
Reading data file ...
  orthogonal box = (0 0 0) to (22.83 22.83 22.83)
  1 by 1 by 1 MPI processor grid
  reading atoms ...
  864 atoms
  read_data CPU = 0.009 seconds
=== STAGE 1: Energy Minimization ===
Switching to 'neigh_modify every 1 delay 0 check yes' setting during minimization
No /omp style for force computation currently active
Neighbor list info ...
  update: every = 1 steps, delay = 0 steps, check = yes
  max neighbors/atom: 4000, page size: 100000
  master list distance cutoff = 8
  ghost atom cutoff = 8
  binsize = 4, bins = 6 6 6
  2 neighbor lists, perpetual/occasional/extra = 2 0 0
  (1) pair meam, perpetual
      attributes: full, newton on, omp
      pair build: full/bin/atomonly/omp
      stencil: full/bin/3d
      bin: standard
  (2) pair meam, perpetual, half/full from (1)
      attributes: half, newton on, omp
      pair build: halffull/newton/omp
      stencil: none
      bin: none
Setting up cg style minimization ...
  Unit style    : metal
  Current step  : 0
Per MPI rank memory allocation (min/avg/max) = 20.91 | 20.91 | 20.91 Mbytes
   Step          Temp          PotEng         KinEng         TotEng         Press          Volume           Lx             Ly             Lz      
         0   0             -3257.5623      0             -3257.5623     -36597.208      11899.199      22.83          22.83          22.83        
        64   0             -3385.2785      0             -3385.2785     -39657.006      11899.199      22.83          22.83          22.83        
Loop time of 8.22531 on 8 procs for 64 steps with 864 atoms

90.0% CPU use with 1 MPI tasks x 8 OpenMP threads

Minimization stats:
  Stopping criterion = energy tolerance
  Energy initial, next-to-last, final = 
     -3257.56233513294  -3385.27737042744  -3385.27852776306
  Force two-norm initial, final = 71.851972 1.3504685
  Force max component initial, final = 5.8011362 0.19763812
  Final line search alpha, max atom move = 0.12143677 0.024000534
  Iterations, force evaluations = 64 212

MPI task timing breakdown:
Section |  min time  |  avg time  |  max time  |%varavg| %total
---------------------------------------------------------------
Pair    | 8.1548     | 8.1548     | 8.1548     |   0.0 | 99.14
Neigh   | 0          | 0          | 0          |   0.0 |  0.00
Comm    | 0.006889   | 0.006889   | 0.006889   |   0.0 |  0.08
Output  | 0          | 0          | 0          |   0.0 |  0.00
Modify  | 0.058616   | 0.058616   | 0.058616   |   0.0 |  0.71
Other   |            | 0.004994   |            |       |  0.06

Nlocal:            864 ave         864 max         864 min
Histogram: 1 0 0 0 0 0 0 0 0 0
Nghost:           3767 ave        3767 max        3767 min
Histogram: 1 0 0 0 0 0 0 0 0 0
Neighs:          60480 ave       60480 max       60480 min
Histogram: 1 0 0 0 0 0 0 0 0 0
FullNghs:       120960 ave      120960 max      120960 min
Histogram: 1 0 0 0 0 0 0 0 0 0

Total # of neighbors = 120960
Ave neighs/atom = 140
Neighbor list builds = 0
Dangerous builds = 0
Minimized PE/atom: -3.91814644417021 eV/atom
=== STAGE 2: NPT Equilibration at 200 K ===
No /omp style for force computation currently active
Setting up Verlet run ...
  Unit style    : metal
  Current step  : 0
  Time step     : 0.002
Per MPI rank memory allocation (min/avg/max) = 19.91 | 19.91 | 19.91 Mbytes
   Step          Temp          PotEng         KinEng         TotEng         Press          Volume           Lx             Ly             Lz      
         0   200           -3385.2785      22.310301     -3362.9682     -37654.348      11899.199      22.83          22.83          22.83        
       500   208.14222     -3375.7454      23.218578     -3352.5268      1461.0187      11323.021      22.455399      22.455399      22.455399    
      1000   200.2742      -3377.9305      22.340889     -3355.5896      38.27731       11334.737      22.463141      22.463141      22.463141    
      1500   195.93975     -3379.1171      21.857374     -3357.2597     -1247.941       11332.719      22.461808      22.461808      22.461808    
      2000   195.93101     -3379.3513      21.856399     -3357.4949      1111.3497      11294.825      22.436744      22.436744      22.436744    
      2500   202.41818     -3379.5147      22.580052     -3356.9347     -2580.3564      11338.255      22.465465      22.465465      22.465465    
      3000   208.75536     -3378.4222      23.286974     -3355.1353     -832.78402      11317.972      22.452061      22.452061      22.452061    
      3500   201.75429     -3380.7448      22.505994     -3358.2388      2158.4193      11299.158      22.439613      22.439613      22.439613    
      4000   205.61999     -3380.2322      22.937219     -3357.295       1308.0987      11290.886      22.434136      22.434136      22.434136    
      4500   199.19871     -3379.7148      22.220916     -3357.4939      601.18915      11282.845      22.428809      22.428809      22.428809    
      5000   192.88477     -3380.1878      21.516587     -3358.6712      243.82119      11303.111      22.44223       22.44223       22.44223     
      5500   191.55412     -3378.9901      21.368151     -3357.622       256.96755      11320.241      22.453561      22.453561      22.453561    
      6000   197.66762     -3378.766       22.05012      -3356.7159      1429.516       11295.428      22.437143      22.437143      22.437143    
      6500   193.58865     -3378.7436      21.595106     -3357.1485      1434.8179      11314.475      22.449748      22.449748      22.449748    
      7000   195.99161     -3379.8129      21.863159     -3357.9497      630.19707      11318.957      22.452712      22.452712      22.452712    
      7500   196.16425     -3380.2373      21.882418     -3358.3549     -325.90802      11320.197      22.453531      22.453531      22.453531    
      8000   201.02766     -3379.806       22.424939     -3357.381       717.51124      11315.252      22.450262      22.450262      22.450262    
      8500   201.39109     -3379.3053      22.46548      -3356.8398      178.62164      11322.652      22.455155      22.455155      22.455155    
      9000   203.28622     -3379.407       22.676883     -3356.7302      1410.809       11305.658      22.443915      22.443915      22.443915    
      9500   196.54051     -3379.861       21.924389     -3357.9366      898.6955       11287.231      22.431715      22.431715      22.431715    
     10000   196.07243     -3379.6978      21.872175     -3357.8256      2253.8081      11293.914      22.436141      22.436141      22.436141    
     10500   196.31616     -3379.8401      21.899363     -3357.9407     -563.16639      11306.908      22.444742      22.444742      22.444742    
     11000   207.42071     -3379.659       23.138093     -3356.5209      1155.3239      11306.755      22.444641      22.444641      22.444641    
     11500   203.74092     -3379.514       22.727606     -3356.7864     -1290.9294      11350.867      22.473792      22.473792      22.473792    
     12000   199.37088     -3379.0038      22.240122     -3356.7637     -835.49917      11344.017      22.46927       22.46927       22.46927     
     12500   188.27391     -3381.3433      21.002238     -3360.3411      165.68006      11316.312      22.450963      22.450963      22.450963    
     13000   204.29913     -3379.4769      22.789875     -3356.687       4272.8235      11277.273      22.425116      22.425116      22.425116    
     13500   200.65837     -3379.8119      22.383743     -3357.4281      3260.6677      11312.198      22.448242      22.448242      22.448242    
     14000   193.78683     -3380.7493      21.617213     -3359.1321      269.72137      11318.721      22.452556      22.452556      22.452556    
     14500   195.69224     -3380.9703      21.829764     -3359.1406      108.45154      11340.141      22.46671       22.46671       22.46671     
     15000   197.52399     -3379.9643      22.034098     -3357.9302     -1488.9769      11343.324      22.468812      22.468812      22.468812    
     15500   199.41906     -3380.1306      22.245496     -3357.8851      2185.1367      11317.217      22.451561      22.451561      22.451561    
     16000   196.46403     -3380.8863      21.915858     -3358.9704     -223.30019      11347.549      22.471601      22.471601      22.471601    
     16500   193.43251     -3380.596       21.577687     -3359.0183     -48.710205      11337.665      22.465075      22.465075      22.465075    
     17000   199.62033     -3380.6953      22.267949     -3358.4274     -653.68837      11330.202      22.460145      22.460145      22.460145    
     17500   208.23991     -3379.4893      23.229475     -3356.2599     -4433.6764      11393.515      22.501903      22.501903      22.501903    
     18000   196.3944      -3381.237       21.908091     -3359.3289     -4020.218       11374.563      22.489419      22.489419      22.489419    
     18500   194.34699     -3380.2243      21.679699     -3358.5446      3368.1559      11321.195      22.454191      22.454191      22.454191    
     19000   211.32077     -3379.8625      23.57315      -3356.2894      475.30637      11319.278      22.452924      22.452924      22.452924    
     19500   194.37772     -3380.4561      21.683128     -3358.7729     -1727.9505      11350.418      22.473495      22.473495      22.473495    
     20000   195.35767     -3381.3999      21.792442     -3359.6075     -791.87089      11335.768      22.463822      22.463822      22.463822    
Loop time of 821.352 on 8 procs for 20000 steps with 864 atoms

Performance: 4.208 ns/day, 5.704 hours/ns, 24.350 timesteps/s, 21.038 katom-step/s
92.5% CPU use with 1 MPI tasks x 8 OpenMP threads

MPI task timing breakdown:
Section |  min time  |  avg time  |  max time  |%varavg| %total
---------------------------------------------------------------
Pair    | 789.02     | 789.02     | 789.02     |   0.0 | 96.06
Neigh   | 0.012117   | 0.012117   | 0.012117   |   0.0 |  0.00
Comm    | 0.56186    | 0.56186    | 0.56186    |   0.0 |  0.07
Output  | 0.006181   | 0.006181   | 0.006181   |   0.0 |  0.00
Modify  | 31.659     | 31.659     | 31.659     |   0.0 |  3.85
Other   |            | 0.08856    |            |       |  0.01

Nlocal:            864 ave         864 max         864 min
Histogram: 1 0 0 0 0 0 0 0 0 0
Nghost:           3737 ave        3737 max        3737 min
Histogram: 1 0 0 0 0 0 0 0 0 0
Neighs:          70539 ave       70539 max       70539 min
Histogram: 1 0 0 0 0 0 0 0 0 0
FullNghs:       141078 ave      141078 max      141078 min
Histogram: 1 0 0 0 0 0 0 0 0 0

Total # of neighbors = 141078
Ave neighs/atom = 163.28472
Neighbor list builds = 2
Dangerous builds = 0
=== STAGE 3: NPT Production at 200 K ===
No /omp style for force computation currently active
Setting up Verlet run ...
  Unit style    : metal
  Current step  : 0
  Time step     : 0.001
Per MPI rank memory allocation (min/avg/max) = 20.01 | 20.01 | 20.01 Mbytes
   Step          Temp          PotEng         KinEng         TotEng         Press          Volume           Lx             Ly             Lz      
         0   195.35767     -3381.3999      21.792442     -3359.6075     -791.87089      11335.768      22.463822      22.463822      22.463822    
       500   195.06255     -3380.1305      21.759521     -3358.371       3131.6235      11295.132      22.436948      22.436948      22.436948    
      1000   198.29468     -3380.8293      22.12007      -3358.7092      1438.4506      11297.545      22.438545      22.438545      22.438545    
      1500   194.65744     -3381.868       21.71433      -3360.1537      648.60745      11315.975      22.45074       22.45074       22.45074     
      2000   197.28218     -3380.5694      22.007124     -3358.5622     -703.41043      11337.22       22.464781      22.464781      22.464781    
      2500   199.27213     -3380.1289      22.229106     -3357.8997      772.35183      11316.437      22.451045      22.451045      22.451045    
      3000   201.81196     -3381.5512      22.512428     -3359.0388      423.7996       11324.775      22.456558      22.456558      22.456558    
      3500   194.98489     -3382.0973      21.750857     -3360.3465     -1447.2839      11329.282      22.459537      22.459537      22.459537    
      4000   193.05094     -3381.2344      21.535123     -3359.6993     -2254.3938      11348.244      22.47206       22.47206       22.47206     
      4500   198.03493     -3381.179       22.091095     -3359.0879     -1105.5039      11352.966      22.475177      22.475177      22.475177    
      5000   200.84184     -3381.4496      22.404209     -3359.0454     -312.41894      11323.916      22.45599       22.45599       22.45599     
      5500   205.9157      -3381.1457      22.970206     -3358.1755     -1203.6617      11343.291      22.46879       22.46879       22.46879     
      6000   208.36858     -3382.4416      23.243829     -3359.1978      492.29442      11317.523      22.451764      22.451764      22.451764    
      6500   199.72834     -3381.9036      22.279997     -3359.6236      2572.8079      11294.328      22.436415      22.436415      22.436415    
      7000   199.69869     -3382.0504      22.27669      -3359.7737     -279.32369      11325.457      22.457009      22.457009      22.457009    
      7500   197.27141     -3380.8635      22.005923     -3358.8576      1264.5265      11313.056      22.448809      22.448809      22.448809    
      8000   196.26791     -3380.7652      21.89398      -3358.8712      877.94834      11307.847      22.445363      22.445363      22.445363    
      8500   199.12989     -3382.5817      22.213239     -3360.3684     -535.0457       11340.165      22.466726      22.466726      22.466726    
      9000   198.92968     -3381.9464      22.190905     -3359.7555      2315.8821      11298.121      22.438927      22.438927      22.438927    
      9500   199.78174     -3382.3734      22.285954     -3360.0874     -1487.6294      11344.202      22.469392      22.469392      22.469392    
     10000   200.9611      -3381.254       22.417514     -3358.8365      1062.4884      11294.304      22.436399      22.436399      22.436399    
     10500   202.41092     -3381.0809      22.579243     -3358.5016     -1406.7246      11340.823      22.467161      22.467161      22.467161    
     11000   191.37904     -3380.9974      21.34862      -3359.6488      1996.9081      11303.559      22.442526      22.442526      22.442526    
     11500   190.53627     -3382.1157      21.254607     -3360.8611     -488.32958      11334.901      22.463249      22.463249      22.463249    
     12000   194.81434     -3380.4571      21.731833     -3358.7253     -287.15568      11317.717      22.451892      22.451892      22.451892    
     12500   213.87781     -3381.7844      23.858392     -3357.926      -1203.9836      11331.369      22.460916      22.460916      22.460916    
     13000   204.10225     -3379.8905      22.767914     -3357.1226     -1261.7103      11347.334      22.47146       22.47146       22.47146     
     13500   196.41329     -3382.0642      21.910198     -3360.154      -209.05001      11321.752      22.45456       22.45456       22.45456     
     14000   202.20314     -3382.1611      22.556064     -3359.6051      1129.7418      11330.728      22.460493      22.460493      22.460493    
     14500   211.45116     -3381.9119      23.587695     -3358.3242      306.19406      11329.336      22.459572      22.459572      22.459572    
     15000   201.14067     -3380.2656      22.437545     -3357.8281      1745.4886      11326.744      22.457859      22.457859      22.457859    
     15500   193.97278     -3380.6816      21.637956     -3359.0437     -1597.2316      11353.351      22.47543       22.47543       22.47543     
     16000   199.02102     -3381.5662      22.201094     -3359.3651      1765.8181      11327.49       22.458352      22.458352      22.458352    
     16500   200.59635     -3382.0331      22.376825     -3359.6563      1107.1744      11318.736      22.452566      22.452566      22.452566    
     17000   216.89786     -3382.4587      24.195282     -3358.2634      629.99768      11318.641      22.452503      22.452503      22.452503    
     17500   207.35771     -3381.5886      23.131065     -3358.4575     -765.70224      11364.373      22.482702      22.482702      22.482702    
     18000   205.84815     -3381.8553      22.962671     -3358.8927      835.23991      11338.149      22.465395      22.465395      22.465395    
     18500   194.63842     -3382.1222      21.712208     -3360.41        628.02701      11324.952      22.456675      22.456675      22.456675    
     19000   198.59535     -3382.862       22.15361      -3360.7084     -1911.3865      11354.681      22.476308      22.476308      22.476308    
     19500   202.41056     -3381.6735      22.579203     -3359.0943     -1351.6618      11351.822      22.474422      22.474422      22.474422    
     20000   199.06869     -3380.9325      22.206412     -3358.7261      2149.2803      11327.917      22.458635      22.458635      22.458635    
     20500   195.8656      -3381.4478      21.849103     -3359.5987     -1511.8663      11355.413      22.476791      22.476791      22.476791    
     21000   203.5647      -3380.7435      22.707949     -3358.0356     -5323.9457      11409.588      22.512479      22.512479      22.512479    
     21500   196.40997     -3381.8221      21.909828     -3359.9123     -1384.2716      11358.357      22.478733      22.478733      22.478733    
     22000   197.35862     -3382.3133      22.015651     -3360.2977      73.398678      11324.553      22.456412      22.456412      22.456412    
     22500   204.07301     -3381.1443      22.764651     -3358.3796      1344.5344      11330.456      22.460313      22.460313      22.460313    
     23000   205.43264     -3381.1926      22.916321     -3358.2763      699.95197      11348.261      22.472072      22.472072      22.472072    
     23500   189.9057      -3382.8198      21.184267     -3361.6356     -2279.2109      11354.424      22.476139      22.476139      22.476139    
     24000   199.81874     -3381.8846      22.290081     -3359.5945     -1209.0818      11347.95       22.471866      22.471866      22.471866    
     24500   205.26149     -3381.9651      22.897228     -3359.0679      992.69551      11334.597      22.463048      22.463048      22.463048    
     25000   200.58366     -3381.7942      22.375409     -3359.4188      781.85651      11315.573      22.450474      22.450474      22.450474    
     25500   198.79461     -3383.2795      22.175838     -3361.1037      3634.9255      11283.491      22.429237      22.429237      22.429237    
     26000   200.17488     -3380.8633      22.329809     -3358.5335      1149.1257      11325.674      22.457152      22.457152      22.457152    
     26500   208.90698     -3381.9221      23.303888     -3358.6182     -1733.1996      11355.662      22.476956      22.476956      22.476956    
     27000   197.18767     -3382.5451      21.996581     -3360.5485      1070.0648      11322.033      22.454746      22.454746      22.454746    
     27500   193.80049     -3382.2206      21.618736     -3360.6019     -986.8334       11352.931      22.475153      22.475153      22.475153    
     28000   195.35604     -3381.3791      21.792261     -3359.5868      2392.5888      11315.29       22.450287      22.450287      22.450287    
     28500   204.77817     -3382.1695      22.843313     -3359.3262      3853.265       11307.851      22.445366      22.445366      22.445366    
     29000   196.19042     -3382.6396      21.885336     -3360.7543      2732.5264      11320.075      22.453451      22.453451      22.453451    
     29500   189.04427     -3381.2489      21.088173     -3360.1607      782.81781      11348.798      22.472426      22.472426      22.472426    
     30000   199.65124     -3382.0077      22.271396     -3359.7363      867.77072      11314.183      22.449555      22.449555      22.449555    
     30500   197.6427      -3381.4496      22.04734      -3359.4023     -280.12593      11331.714      22.461144      22.461144      22.461144    
     31000   209.18358     -3382.4327      23.334743     -3359.0979     -287.00949      11346.65       22.471008      22.471008      22.471008    
     31500   195.02809     -3383.2285      21.755677     -3361.4728      31.846097      11345.133      22.470006      22.470006      22.470006    
     32000   196.57769     -3382.2319      21.928537     -3360.3034      794.29903      11346.191      22.470705      22.470705      22.470705    
     32500   202.38039     -3381.7873      22.575837     -3359.2115      1180.3509      11310.813      22.447326      22.447326      22.447326    
     33000   206.66986     -3382.0933      23.054334     -3359.039      -1007.4557      11347.558      22.471608      22.471608      22.471608    
     33500   198.65216     -3381.7889      22.159947     -3359.629      -3475.2129      11379.08       22.492396      22.492396      22.492396    
     34000   196.21272     -3383.0347      21.887825     -3361.1469      2617.0431      11302.107      22.441565      22.441565      22.441565    
     34500   190.77065     -3382.0571      21.280754     -3360.7764      464.3639       11314.596      22.449828      22.449828      22.449828    
     35000   203.92831     -3382.5729      22.74851      -3359.8244     -3419.7684      11382.775      22.49483       22.49483       22.49483     
     35500   204.36289     -3381.8414      22.796988     -3359.0444     -252.94784      11341.99       22.467931      22.467931      22.467931    
     36000   209.82855     -3382.0808      23.406691     -3358.6741      983.91555      11324.148      22.456143      22.456143      22.456143    
     36500   199.39493     -3382.2279      22.242805     -3359.9851     -223.58821      11328.592      22.459081      22.459081      22.459081    
     37000   204.57717     -3382.582       22.820892     -3359.7612      580.77947      11331.36       22.46091       22.46091       22.46091     
     37500   204.38519     -3381.3988      22.799476     -3358.5994      2320.2055      11301.29       22.441024      22.441024      22.441024    
     38000   208.65302     -3382.7893      23.275559     -3359.5137      2012.5953      11299.717      22.439983      22.439983      22.439983    
     38500   198.03356     -3382.7548      22.090941     -3360.6639      457.81029      11315.93       22.45071       22.45071       22.45071     
     39000   197.69976     -3383.3289      22.053706     -3361.2752      1485.3932      11317.456      22.451719      22.451719      22.451719    
     39500   209.3672      -3382.025       23.355227     -3358.6698      2050.3353      11322.587      22.455112      22.455112      22.455112    
     40000   200.89954     -3381.5611      22.410646     -3359.1504      2245.1354      11324.181      22.456166      22.456166      22.456166    
     40500   194.56091     -3382.0098      21.703562     -3360.3062     -440.30216      11354.387      22.476114      22.476114      22.476114    
     41000   204.44066     -3382.551       22.805663     -3359.7454     -1957.294       11362.62       22.481545      22.481545      22.481545    
     41500   190.17314     -3381.799       21.2141       -3360.5849     -2300.8416      11352.462      22.474844      22.474844      22.474844    
     42000   188.55444     -3382.4253      21.033532     -3361.3917     -3416.4378      11365.998      22.483773      22.483773      22.483773    
     42500   199.14217     -3382.9132      22.214609     -3360.6986      218.5177       11343.148      22.468696      22.468696      22.468696    
     43000   211.94476     -3383.0359      23.642757     -3359.3931      474.47773      11327.302      22.458229      22.458229      22.458229    
     43500   201.94145     -3382.4963      22.526873     -3359.9695     -1123.9601      11357.197      22.477968      22.477968      22.477968    
     44000   197.83221     -3383.4009      22.068481     -3361.3324      2365.4763      11306.468      22.444451      22.444451      22.444451    
     44500   195.28213     -3382.845       21.784016     -3361.061       44.575935      11314.188      22.449558      22.449558      22.449558    
     45000   196.81754     -3381.7653      21.955293     -3359.8101     -1625.3109      11362.375      22.481384      22.481384      22.481384    
     45500   199.36119     -3383.5086      22.239041     -3361.2696     -815.87853      11327.361      22.458267      22.458267      22.458267    
     46000   200.2162      -3383.1598      22.334418     -3360.8254     -1108.3721      11337.505      22.46497       22.46497       22.46497     
     46500   211.00522     -3382.4341      23.537949     -3358.8962     -2601.3881      11369.692      22.486208      22.486208      22.486208    
     47000   198.3186      -3382.1462      22.122739     -3360.0234     -2989.9959      11369.42       22.486029      22.486029      22.486029    
     47500   202.55636     -3383.1475      22.595467     -3360.552       744.77008      11315.594      22.450488      22.450488      22.450488    
     48000   194.42876     -3382.609       21.688821     -3360.9202      5444.661       11263.834      22.416204      22.416204      22.416204    
     48500   197.45854     -3382.0413      22.026798     -3360.0145      2647.7892      11290.546      22.43391       22.43391       22.43391     
     49000   199.52981     -3382.0285      22.25785      -3359.7706      1830.6211      11296.42       22.4378        22.4378        22.4378      
     49500   195.29309     -3383.1302      21.785238     -3361.3449      608.49366      11314.445      22.449728      22.449728      22.449728    
     50000   196.5919      -3383.2524      21.930122     -3361.3223     -779.68499      11332.87       22.461907      22.461907      22.461907    
Loop time of 1948.28 on 8 procs for 50000 steps with 864 atoms

Performance: 2.217 ns/day, 10.824 hours/ns, 25.664 timesteps/s, 22.173 katom-step/s
92.7% CPU use with 1 MPI tasks x 8 OpenMP threads

MPI task timing breakdown:
Section |  min time  |  avg time  |  max time  |%varavg| %total
---------------------------------------------------------------
Pair    | 1869.1     | 1869.1     | 1869.1     |   0.0 | 95.94
Neigh   | 0          | 0          | 0          |   0.0 |  0.00
Comm    | 1.333      | 1.333      | 1.333      |   0.0 |  0.07
Output  | 0.013969   | 0.013969   | 0.013969   |   0.0 |  0.00
Modify  | 77.632     | 77.632     | 77.632     |   0.0 |  3.98
Other   |            | 0.2036     |            |       |  0.01

Nlocal:            864 ave         864 max         864 min
Histogram: 1 0 0 0 0 0 0 0 0 0
Nghost:           3736 ave        3736 max        3736 min
Histogram: 1 0 0 0 0 0 0 0 0 0
Neighs:          70267 ave       70267 max       70267 min
Histogram: 1 0 0 0 0 0 0 0 0 0
FullNghs:       140534 ave      140534 max      140534 min
Histogram: 1 0 0 0 0 0 0 0 0 0

Total # of neighbors = 140534
Ave neighs/atom = 162.65509
Neighbor list builds = 0
Dangerous builds = 0

=== FINAL RESULTS: FCC at 200 K ===
Atoms: 864 | PE/atom: -3.91475046995864 eV/atom
WARNING: Detected non-ASCII characters in input. Will try to continue by replacing with ASCII equivalents where known. (src/input.cpp:479)
Volume: 11332.8698535889 …³ | Area: 504.53728699921 ²
==========================================
FCC 200 864 -3.91475046995864 11332.8698535889 22.4619074657343 22.4619074657343 22.4619074657343 504.53728699921
Simulation complete!
Total wall time: 0:46:18
