LAMMPS (10 Sep 2025)
  using 8 OpenMP thread(s) per MPI task
Loaded 1 plugins from C:\Users\J.Shiva\AppData\Local\LAMMPS 64-bit 10Sep2025\plugins
using multi-threaded neighbor list subroutines
Reading data file ...
  orthogonal box = (0 0 0) to (16.143248 27.960925 26.361813)
  1 by 1 by 1 MPI processor grid
  reading atoms ...
  432 atoms
  read_data CPU = 0.024 seconds
=== STAGE 1: Energy Minimization ===
Switching to 'neigh_modify every 1 delay 0 check yes' setting during minimization
No /omp style for force computation currently active
Neighbor list info ...
  update: every = 1 steps, delay = 0 steps, check = yes
  max neighbors/atom: 4000, page size: 100000
  master list distance cutoff = 8
  ghost atom cutoff = 8
  binsize = 4, bins = 5 7 7
  2 neighbor lists, perpetual/occasional/extra = 2 0 0
  (1) pair meam, perpetual
      attributes: full, newton on, omp
      pair build: full/bin/atomonly/omp
      stencil: full/bin/3d
      bin: standard
  (2) pair meam, perpetual, half/full from (1)
      attributes: half, newton on, omp
      pair build: halffull/newton/omp
      stencil: none
      bin: none
Setting up cg style minimization ...
  Unit style    : metal
  Current step  : 0
Per MPI rank memory allocation (min/avg/max) = 19.27 | 19.27 | 19.27 Mbytes
   Step          Temp          PotEng         KinEng         TotEng         Press          Volume           Lx             Ly             Lz      
         0   0             -1114.532       0             -1114.532      -47274.857      11899.199      16.143248      27.960925      26.361813    
       175   0             -1431.9426      0             -1431.9426     -40158.533      11899.199      16.143248      27.960925      26.361813    
Loop time of 1.47657 on 8 procs for 175 steps with 432 atoms

92.1% CPU use with 1 MPI tasks x 8 OpenMP threads

Minimization stats:
  Stopping criterion = energy tolerance
  Energy initial, next-to-last, final = 
     -1114.53195747825  -1431.94118313219  -1431.94259756656
  Force two-norm initial, final = 37.612556 12.518955
  Force max component initial, final = 6.5896255 6.1848846
  Final line search alpha, max atom move = 0.18743317 1.1592526
  Iterations, force evaluations = 175 451

MPI task timing breakdown:
Section |  min time  |  avg time  |  max time  |%varavg| %total
---------------------------------------------------------------
Pair    | 1.36       | 1.36       | 1.36       |   0.0 | 92.11
Neigh   | 0.004509   | 0.004509   | 0.004509   |   0.0 |  0.31
Comm    | 0.002465   | 0.002465   | 0.002465   |   0.0 |  0.17
Output  | 0          | 0          | 0          |   0.0 |  0.00
Modify  | 0.10458    | 0.10458    | 0.10458    |   0.0 |  7.08
Other   |            | 0.004989   |            |       |  0.34

Nlocal:            432 ave         432 max         432 min
Histogram: 1 0 0 0 0 0 0 0 0 0
Nghost:           1750 ave        1750 max        1750 min
Histogram: 1 0 0 0 0 0 0 0 0 0
Neighs:          16615 ave       16615 max       16615 min
Histogram: 1 0 0 0 0 0 0 0 0 0
FullNghs:        33230 ave       33230 max       33230 min
Histogram: 1 0 0 0 0 0 0 0 0 0

Total # of neighbors = 33230
Ave neighs/atom = 76.921296
Neighbor list builds = 6
Dangerous builds = 0
Minimized PE/atom: -3.31468193881149 eV/atom
=== STAGE 2: NPT Equilibration at 400 K ===
No /omp style for force computation currently active
Setting up Verlet run ...
  Unit style    : metal
  Current step  : 0
  Time step     : 0.002
Per MPI rank memory allocation (min/avg/max) = 18.17 | 18.17 | 18.17 Mbytes
   Step          Temp          PotEng         KinEng         TotEng         Press          Volume           Lx             Ly             Lz      
         0   400           -1431.9426      22.284449     -1409.6581     -38158.195      11899.199      16.143248      27.960925      26.361813    
       500   713.95638     -1580.4089      39.775312     -1540.6336     -1694.034       7302.7144      13.718705      23.761494      22.402551    
      1000   446.76652     -1647.4129      24.889865     -1622.523      -634.18887      6387.4074      13.11978       22.724125      21.424511    
      1500   396.40499     -1667.3837      22.084167     -1645.2995     -892.64863      6296.7555      13.057417      22.61611       21.322673    
      2000   377.54524     -1675.3822      21.033469     -1654.3488      1167.012       6215.3381      13.000895      22.518211      21.230373    
      2500   444.84024     -1680.2592      24.782549     -1655.4766     -2857.4653      6159.6422      12.961945      22.450747      21.166767    
      3000   393.85353     -1683.107       21.942022     -1661.165      -4031.6482      6127.6647      12.939475      22.411829      21.130075    
      3500   395.2888      -1685.3974      22.021983     -1663.3754     -987.13152      6099.176       12.919391      22.377042      21.097278    
      4000   403.75987     -1686.4097      22.493916     -1663.9158      4476.6612      6083.1891      12.908094      22.357474      21.078829    
      4500   432.2091      -1686.0278      24.078854     -1661.949      -1020.0659      6109.0172      12.926336      22.389071      21.108619    
      5000   398.2843      -1684.4261      22.188865     -1662.2373      2479.3863      6100.184       12.920103      22.378275      21.09844     
      5500   392.56295     -1686.8989      21.870123     -1665.0287      204.75234      6102.1012      12.921457      22.380619      21.10065     
      6000   381.91478     -1686.7956      21.276901     -1665.5187     -1800.6857      6087.6757      12.911266      22.362969      21.08401     
      6500   389.96724     -1686.7113      21.725513     -1664.9858     -4279.9979      6095.0833      12.916501      22.372036      21.092558    
      7000   414.08305     -1686.4776      23.069031     -1663.4086      2611.7612      6053.8692      12.887322      22.321497      21.044909    
      7500   439.31882     -1686.5334      24.474945     -1662.0585     -759.95123      6103.4403      12.922402      22.382256      21.102194    
      8000   418.86122     -1687.5715      23.335229     -1664.2363      2006.1261      6078.5362      12.904802      22.351772      21.073453    
      8500   408.85738     -1689.8222      22.777904     -1667.0443      1506.2963      6079.4609      12.905456      22.352906      21.074522    
      9000   417.84333     -1691.0031      23.278521     -1667.7245      2465.5864      6042.2186      12.87905       22.307168      21.0314      
      9500   374.95262     -1690.3087      20.889032     -1669.4197      1054.8493      6050.3489      12.884824      22.317169      21.040829    
     10000   409.70896     -1692.0419      22.825346     -1669.2165     -610.76007      6057.4539      12.889865      22.325901      21.049062    
     10500   413.86184     -1690.6982      23.056708     -1667.6415     -894.67096      6073.2783      12.90108       22.345326      21.067375    
     11000   412.85906     -1691.9505      23.000842     -1668.9496      399.39009      6061.6962      12.892874      22.331112      21.053974    
     11500   375.2992      -1690.9339      20.908339     -1670.0255     -274.48938      6085.8772      12.909995      22.360767      21.081933    
     12000   404.83267     -1690.7158      22.553682     -1668.1621      2716.3154      6071.0574      12.899507      22.342602      21.064807    
     12500   398.88001     -1689.8359      22.222053     -1667.6139     -2393.7233      6075.9068      12.902941      22.348549      21.070414    
     13000   424.10895     -1692.079       23.627585     -1668.4514      685.01668      6086.3166      12.910305      22.361305      21.08244     
     13500   405.36039     -1692.3216      22.583082     -1669.7385     -298.83934      6071.4795      12.899806      22.34312       21.065295    
     14000   364.31422     -1690.7824      20.296354     -1670.4861      550.57011      6092.1091      12.9144        22.368397      21.089127    
     14500   380.37725     -1690.0943      21.191243     -1668.903      -1505.1894      6074.3081      12.901809      22.346589      21.068566    
     15000   416.42875     -1690.8461      23.199713     -1667.6464     -3061.5289      6102.7448      12.921911      22.381406      21.101392    
     15500   377.83882     -1690.4179      21.049825     -1669.368       2126.2031      6066.15        12.896031      22.33658       21.05913     
     16000   397.52175     -1690.7865      22.146383     -1668.6401      542.11594      6072.2246      12.900334      22.344033      21.066157    
     16500   366.54982     -1695.127       20.420902     -1674.7061      3732.5365      6046.9495      12.88241       22.312989      21.036887    
     17000   410.74106     -1691.0176      22.882845     -1668.1348      1297.5554      6070.41        12.899049      22.341807      21.064058    
     17500   387.42777     -1691.1801      21.584036     -1669.5961      2158.5271      6048.4386      12.883467      22.31482       21.038614    
     18000   385.34774     -1691.1996      21.468155     -1669.7315     -649.51298      6084.2466      12.908842      22.35877       21.08005     
     18500   379.37431     -1691.8301      21.135369     -1670.6947     -8293.2282      6126.073       12.938355      22.409888      21.128245    
     19000   407.77807     -1694.1105      22.717774     -1671.3928     -1919.1162      6050.5536      12.884969      22.317421      21.041066    
     19500   411.87748     -1691.9139      22.946157     -1668.9677      2557.8188      6063.3813      12.894068      22.333181      21.055925    
     20000   416.31722     -1691.0617      23.193499     -1667.8682     -2260.2499      6082.1779      12.907378      22.356235      21.077661    
Loop time of 161.531 on 8 procs for 20000 steps with 432 atoms

Performance: 21.395 ns/day, 1.122 hours/ns, 123.815 timesteps/s, 53.488 katom-step/s
89.5% CPU use with 1 MPI tasks x 8 OpenMP threads

MPI task timing breakdown:
Section |  min time  |  avg time  |  max time  |%varavg| %total
---------------------------------------------------------------
Pair    | 140.16     | 140.16     | 140.16     |   0.0 | 86.77
Neigh   | 0.029666   | 0.029666   | 0.029666   |   0.0 |  0.02
Comm    | 0.14898    | 0.14898    | 0.14898    |   0.0 |  0.09
Output  | 0.003081   | 0.003081   | 0.003081   |   0.0 |  0.00
Modify  | 21.159     | 21.159     | 21.159     |   0.0 | 13.10
Other   |            | 0.02885    |            |       |  0.02

Nlocal:            432 ave         432 max         432 min
Histogram: 1 0 0 0 0 0 0 0 0 0
Nghost:           2439 ave        2439 max        2439 min
Histogram: 1 0 0 0 0 0 0 0 0 0
Neighs:          32433 ave       32433 max       32433 min
Histogram: 1 0 0 0 0 0 0 0 0 0
FullNghs:        64866 ave       64866 max       64866 min
Histogram: 1 0 0 0 0 0 0 0 0 0

Total # of neighbors = 64866
Ave neighs/atom = 150.15278
Neighbor list builds = 34
Dangerous builds = 0
=== STAGE 3: NPT Production at 400 K ===
No /omp style for force computation currently active
Setting up Verlet run ...
  Unit style    : metal
  Current step  : 0
  Time step     : 0.001
Per MPI rank memory allocation (min/avg/max) = 18.73 | 18.73 | 18.73 Mbytes
   Step          Temp          PotEng         KinEng         TotEng         Press          Volume           Lx             Ly             Lz      
         0   416.31722     -1691.0617      23.193499     -1667.8682     -2260.2499      6082.1779      12.907378      22.356235      21.077661    
       500   392.14696     -1693.9864      21.846947     -1672.1395      2526.7963      6052.2839      12.886197      22.319548      21.043072    
      1000   390.88763     -1693.3455      21.776789     -1671.5687     -1163.5427      6048.5074      12.883516      22.314905      21.038694    
      1500   399.31342     -1694.011       22.246199     -1671.7649     -492.94763      6059.644       12.891418      22.328592      21.051598    
      2000   396.8338      -1693.0409      22.108056     -1670.9329     -4826.8516      6078.6567      12.904887      22.35192       21.073592    
      2500   387.91567     -1693.1228      21.611217     -1671.5115      376.32313      6019.1931      12.862669      22.278796      21.004651    
      3000   420.99981     -1695.2727      23.454372     -1671.8183     -357.23417      6043.8825      12.880232      22.309216      21.03333     
      3500   404.64737     -1694.9205      22.543359     -1672.3772      3908.6639      6002.7977      12.85098       22.25855       20.985562    
      4000   393.62772     -1693.3457      21.929442     -1671.4163     -584.82115      6057.9137      12.890191      22.326466      21.049594    
      4500   410.29451     -1693.3132      22.857968     -1670.4552     -5042.9873      6080.2211      12.905994      22.353837      21.0754      
      5000   409.69452     -1693.7041      22.824542     -1670.8795     -3807.0136      6051.9723      12.885976      22.319165      21.04271     
      5500   387.32937     -1693.0276      21.578554     -1671.449      -2183.5982      6054.7761      12.887966      22.322611      21.04596     
      6000   410.2033      -1695.6539      22.852886     -1672.801       4325.4232      6017.4119      12.8614        22.276598      21.002578    
      6500   412.57894     -1694.8045      22.985236     -1671.8192      4609.8515      6024.589       12.866511      22.285452      21.010925    
      7000   420.51363     -1696.0391      23.427286     -1672.6119      2064.9108      6040.7391      12.877998      22.305347      21.029683    
      7500   394.54074     -1695.0509      21.980307     -1673.0706      70.209458      6014.6169      12.859408      22.273149      20.999326    
      8000   412.65018     -1695.6742      22.989205     -1672.685       1441.5329      6006.4361      12.853576      22.263046      20.989801    
      8500   396.99773     -1696.8104      22.117189     -1674.6932     -654.55262      5994.9514      12.845378      22.248847      20.976414    
      9000   382.61279     -1696.4698      21.315788     -1675.154       1296.8852      6004.295       12.852048      22.2604        20.987307    
      9500   412.84353     -1697.1677      22.999977     -1674.1677     -252.31336      6007.0494      12.854013      22.263804      20.990515    
     10000   379.05842     -1696.6048      21.11777      -1675.4871     -5302.2239      6023.408       12.865671      22.283995      21.009552    
     10500   418.52509     -1697.4196      23.316502     -1674.1031     -3197.7836      6023.7096      12.865885      22.284367      21.009903    
     11000   399.62243     -1698.7448      22.263414     -1676.4814     -4114.9147      6028.5156      12.869306      22.290292      21.015489    
     11500   408.55175     -1700.2155      22.760877     -1677.4546      2499.0194      5974.2455      12.830572      22.223203      20.952237    
     12000   403.60726     -1698.9178      22.485414     -1676.4324     -2727.5846      6012.8339      12.858138      22.270948      20.997251    
     12500   405.11588     -1698.1719      22.56946      -1675.6024      1649.8283      5974.3291      12.830632      22.223307      20.952334    
     13000   405.13779     -1699.6201      22.570681     -1677.0495     -818.7007       5974.6338      12.83085       22.223684      20.952691    
     13500   398.1362      -1700.1087      22.180615     -1677.9281      3708.1368      5945.7872      12.810167      22.18786       20.918915    
     14000   402.69769     -1699.3056      22.43474      -1676.8709      1157.0331      5983.3833      12.83711       22.234528      20.962914    
     14500   376.94111     -1699.0898      20.999812     -1678.09        7867.8296      5931.2181      12.799695      22.169723      20.901815    
     15000   423.39002     -1700.1242      23.587533     -1676.5367      2895.8659      5957.082       12.818273      22.201901      20.932153    
     15500   407.39346     -1698.9983      22.696347     -1676.3019     -2326.2452      5990.802       12.842414      22.243713      20.971574    
     16000   407.65399     -1699.3554      22.710862     -1676.6445      454.40725      5968.8177      12.826685      22.216471      20.945889    
     16500   372.25787     -1696.6785      20.738904     -1675.9396      1128.1857      6009.6064      12.855837      22.266962      20.993493    
     17000   408.48544     -1699.042       22.757183     -1676.2849      2665.884       5946.3026      12.810537      22.188501      20.919519    
     17500   394.13008     -1700.0538      21.957429     -1678.0964      281.30483      5966.7906      12.825233      22.213955      20.943518    
     18000   398.4789      -1699.2517      22.199707     -1677.052       2530.6443      5961.1108      12.821162      22.206905      20.93687     
     18500   385.18049     -1700.1501      21.458837     -1678.6913     -2583.1182      5961.9469      12.821762      22.207943      20.937849    
     19000   410.45509     -1699.6583      22.866914     -1676.7914     -499.06138      5977.5875      12.832964      22.227346      20.956143    
     19500   422.64855     -1698.7831      23.546225     -1675.2368     -928.30489      5982.2098      12.836271      22.233074      20.961543    
     20000   406.58212     -1699.2099      22.651146     -1676.5587     -1505.2217      6011.5285      12.857207      22.269336      20.995731    
     20500   400.64534     -1699.9769      22.320402     -1677.6565      294.91469      6002.0299      12.850432      22.257601      20.984667    
     21000   385.66715     -1700.3886      21.48595      -1678.9027     -2025.3162      5967.5006      12.825742      22.214836      20.944349    
     21500   372.26158     -1699.5597      20.739111     -1678.8206      3830.0885      5959.24        12.819821      22.204581      20.93468     
     22000   404.03037     -1700.2682      22.508985     -1677.7593     -778.74536      5987.368       12.839959      22.239462      20.967566    
     22500   409.60941     -1700.1305      22.8198       -1677.3107      377.74267      5967.5583      12.825783      22.214908      20.944416    
     23000   397.88525     -1701.0162      22.166634     -1678.8496     -3132.7356      5979.8925      12.834613      22.230203      20.958836    
     23500   385.87521     -1700.354       21.497541     -1678.8564     -2980.5403      5987.897       12.840338      22.240117      20.968184    
     24000   378.16618     -1699.4638      21.068062     -1678.3957      733.89558      5968.7034      12.826603      22.216329      20.945756    
     24500   431.64456     -1695.6977      24.047403     -1671.6503     -5992.3908      6000.6662      12.849458      22.255915      20.983078    
     25000   375.97777     -1699.346       20.946144     -1678.3998     -4990.4351      6025.994       12.867512      22.287184      21.012558    
     25500   388.40717     -1699.388       21.6386       -1677.7494     -1329.1448      5989.3706      12.841391      22.241941      20.969903    
     26000   394.98112     -1698.8         22.004841     -1676.7952      859.02976      5979.0633      12.83402       22.229175      20.957867    
     26500   400.41517     -1699.3248      22.307579     -1677.0173      312.03122      5950.7748      12.813748      22.194062      20.924763    
     27000   387.71709     -1700.6206      21.600154     -1679.0205     -4984.1373      5991.3802      12.842827      22.244429      20.972249    
     27500   407.17473     -1699.5868      22.684161     -1676.9026     -2202.5875      5987.4493      12.840018      22.239563      20.967661    
     28000   413.80045     -1698.2519      23.053287     -1675.1987     -354.79975      5961.9778      12.821784      22.207981      20.937886    
     28500   415.4034      -1698.9934      23.14259      -1675.8508      465.26162      5993.8432      12.844586      22.247476      20.975122    
     29000   400.24099     -1699.8948      22.297875     -1677.5969     -2039.9366      5986.0609      12.839025      22.237844      20.96604     
     29500   401.33217     -1700.0175      22.358666     -1677.6589     -2015.9963      5972.9985      12.829679      22.221657      20.950779    
     30000   376.9234      -1700.063       20.998826     -1679.0642      5176.2694      5920.634       12.792077      22.156528      20.889375    
     30500   401.76744     -1700.0455      22.382915     -1677.6625      1998.7185      5955.7622      12.817327      22.200261      20.930607    
     31000   388.96909     -1697.8973      21.669905     -1676.2274     -5908.6452      5999.6282      12.848718      22.254632      20.981868    
     31500   394.38503     -1700.3475      21.971633     -1678.3758     -3770.1481      5998.7622      12.848099      22.253561      20.980858    
     32000   417.70187     -1698.3518      23.27064      -1675.0812      4111.0879      5955.762       12.817326      22.200261      20.930607    
     32500   406.53974     -1699.4932      22.648785     -1676.8444      2874.8378      5972.3943      12.829247      22.220907      20.950072    
     33000   387.15193     -1699.8055      21.568668     -1678.2368     -241.58359      5973.0418      12.82971       22.22171       20.950829    
     33500   384.23098     -1699.1645      21.405939     -1677.7585     -1310.1308      5973.6391      12.830138      22.222451      20.951528    
     34000   392.01906     -1698.5814      21.839822     -1676.7416     -3188.3476      5999.5688      12.848675      22.254558      20.981799    
     34500   404.57226     -1700.2021      22.539175     -1677.663      -2234.9638      6006.3927      12.853545      22.262992      20.98975     
     35000   361.75534     -1699.7509      20.153796     -1679.5971     -152.05909      5972.9832      12.829668      22.221638      20.950761    
     35500   371.34899     -1699.2121      20.688269     -1678.5238     -3977.214       6015.0811      12.859739      22.273722      20.999866    
     36000   391.27021     -1699.6586      21.798103     -1677.8605      1947.6126      5972.353       12.829217      22.220856      20.950024    
     36500   418.76916     -1700.1597      23.3301       -1676.8296     -884.87938      5987.454       12.840021      22.239569      20.967666    
     37000   417.93383     -1700.0039      23.283563     -1676.7203      3214.0028      5982.19        12.836257      22.233049      20.96152     
     37500   408.57543     -1701.0068      22.762196     -1678.2446      140.08961      5974.6175      12.830838      22.223664      20.952671    
     38000   401.02388     -1700.4603      22.341491     -1678.1188      7449.9776      5926.3195      12.796171      22.163618      20.896059    
     38500   379.75698     -1700.5795      21.156688     -1679.4228      644.22726      5982.0535      12.836159      22.23288       20.96136     
     39000   397.15867     -1698.7467      22.126155     -1676.6205      20.966007      5984.3346      12.837791      22.235706      20.964024    
     39500   395.37297     -1700.2798      22.026672     -1678.2532      3842.3841      5954.352       12.816315      22.198509      20.928955    
     40000   363.7078      -1699.0927      20.26257      -1678.8301     -7156.0446      6018.1089      12.861897      22.277459      21.003389    
     40500   406.70538     -1699.0871      22.658013     -1676.4291     -1476.4983      5997.5367      12.847224      22.252045      20.979429    
     41000   426.96391     -1700.2412      23.786639     -1676.4546      181.71787      5970.1209      12.827619      22.218087      20.947414    
     41500   405.14248     -1699.6477      22.570942     -1677.0767      6080.2442      5955.8281      12.817374      22.200343      20.930684    
     42000   384.86993     -1699.8826      21.441536     -1678.4411     -784.09287      5957.1139      12.818296      22.20194       20.93219     
     42500   383.23097     -1700.4111      21.350227     -1679.0608     -1560.2089      5987.3931      12.839977      22.239493      20.967595    
     43000   379.52634     -1698.139       21.143838     -1676.9952      1839.9796      5991.9797      12.843255      22.245171      20.972948    
     43500   416.88771     -1698.7192      23.225282     -1675.494       1522.788       5969.4953      12.827171      22.217311      20.946682    
     44000   395.26887     -1698.1608      22.020873     -1676.1399      4959.6457      5935.6222      12.802863      22.175209      20.906987    
     44500   412.03855     -1699.9276      22.95513      -1676.9725      1245.8192      5967.9798      12.826085      22.215431      20.944909    
     45000   376.1071      -1699.4146      20.953349     -1678.4613     -3246.1761      5998.5039      12.847915      22.253241      20.980557    
     45500   381.3317      -1699.1315      21.244417     -1677.8871     -1734.6659      5998.921       12.848213      22.253757      20.981043    
     46000   388.55258     -1700.1803      21.6467       -1678.5336     -287.57546      5965.3333      12.824189      22.212147      20.941813    
     46500   424.41186     -1700.9012      23.644461     -1677.2568     -1033.8537      5966.5687      12.825074      22.21368       20.943258    
     47000   380.7377      -1698.1467      21.211325     -1676.9354      1165.0791      5999.7219      12.848784      22.254747      20.981977    
     47500   424.50518     -1701.7966      23.64966      -1678.147      -11809.992      6039.2946      12.876972      22.303569      21.028007    
     48000   397.42045     -1700.4995      22.14074      -1678.3587     -5822.7948      6009.9254      12.856064      22.267356      20.993865    
     48500   406.50755     -1700.1988      22.646992     -1677.5518      1901.2848      5973.0943      12.829748      22.221775      20.950891    
     49000   448.55716     -1700.9298      24.989623     -1675.9402     -2426.5247      5993.8306      12.844578      22.247461      20.975107    
     49500   415.45357     -1699.6601      23.145385     -1676.5147      5299.8461      5940.6453      12.806473      22.181462      20.912883    
     50000   368.71414     -1702.0256      20.541479     -1681.4842      5740.0917      5904.1739      12.780212      22.135976      20.869998    
Loop time of 417.355 on 8 procs for 50000 steps with 432 atoms

Performance: 10.351 ns/day, 2.319 hours/ns, 119.802 timesteps/s, 51.754 katom-step/s
88.6% CPU use with 1 MPI tasks x 8 OpenMP threads

MPI task timing breakdown:
Section |  min time  |  avg time  |  max time  |%varavg| %total
---------------------------------------------------------------
Pair    | 362.97     | 362.97     | 362.97     |   0.0 | 86.97
Neigh   | 0.015892   | 0.015892   | 0.015892   |   0.0 |  0.00
Comm    | 0.3754     | 0.3754     | 0.3754     |   0.0 |  0.09
Output  | 0.006879   | 0.006879   | 0.006879   |   0.0 |  0.00
Modify  | 53.922     | 53.922     | 53.922     |   0.0 | 12.92
Other   |            | 0.06484    |            |       |  0.02

Nlocal:            432 ave         432 max         432 min
Histogram: 1 0 0 0 0 0 0 0 0 0
Nghost:           2454 ave        2454 max        2454 min
Histogram: 1 0 0 0 0 0 0 0 0 0
Neighs:          32792 ave       32792 max       32792 min
Histogram: 1 0 0 0 0 0 0 0 0 0
FullNghs:        65584 ave       65584 max       65584 min
Histogram: 1 0 0 0 0 0 0 0 0 0

Total # of neighbors = 65584
Ave neighs/atom = 151.81481
Neighbor list builds = 17
Dangerous builds = 0

=== FINAL RESULTS: DHCP at 400 K ===
Atoms: 432 | PE/atom: -3.93531800435457 eV/atom
WARNING: Detected non-ASCII characters in input. Will try to continue by replacing with ASCII equivalents where known. (src/input.cpp:479)
Volume: 5904.17394688652 …³ | Area: 282.902462453778 ²
==========================================
DHCP 400 432 -3.93531800435457 5904.17394688652 12.7802117677794 22.1359761163749 20.8699984287029 282.902462453778
Simulation complete!
Total wall time: 0:09:40
