LAMMPS (10 Sep 2025)
  using 8 OpenMP thread(s) per MPI task
Loaded 1 plugins from C:\Users\J.Shiva\AppData\Local\LAMMPS 64-bit 10Sep2025\plugins
using multi-threaded neighbor list subroutines
Reading data file ...
  orthogonal box = (0 0 0) to (16.143248 27.960925 26.361813)
  1 by 1 by 1 MPI processor grid
  reading atoms ...
  432 atoms
  read_data CPU = 0.003 seconds
=== STAGE 1: Energy Minimization ===
Switching to 'neigh_modify every 1 delay 0 check yes' setting during minimization
No /omp style for force computation currently active
Neighbor list info ...
  update: every = 1 steps, delay = 0 steps, check = yes
  max neighbors/atom: 4000, page size: 100000
  master list distance cutoff = 8
  ghost atom cutoff = 8
  binsize = 4, bins = 5 7 7
  2 neighbor lists, perpetual/occasional/extra = 2 0 0
  (1) pair meam, perpetual
      attributes: full, newton on, omp
      pair build: full/bin/atomonly/omp
      stencil: full/bin/3d
      bin: standard
  (2) pair meam, perpetual, half/full from (1)
      attributes: half, newton on, omp
      pair build: halffull/newton/omp
      stencil: none
      bin: none
Setting up cg style minimization ...
  Unit style    : metal
  Current step  : 0
Per MPI rank memory allocation (min/avg/max) = 19.27 | 19.27 | 19.27 Mbytes
   Step          Temp          PotEng         KinEng         TotEng         Press          Volume           Lx             Ly             Lz      
         0   0             -1114.532       0             -1114.532      -47274.857      11899.199      16.143248      27.960925      26.361813    
       175   0             -1431.9426      0             -1431.9426     -40158.533      11899.199      16.143248      27.960925      26.361813    
Loop time of 1.61286 on 8 procs for 175 steps with 432 atoms

93.0% CPU use with 1 MPI tasks x 8 OpenMP threads

Minimization stats:
  Stopping criterion = energy tolerance
  Energy initial, next-to-last, final = 
     -1114.53195747825  -1431.94118313219  -1431.94259756656
  Force two-norm initial, final = 37.612556 12.518955
  Force max component initial, final = 6.5896255 6.1848846
  Final line search alpha, max atom move = 0.18743317 1.1592526
  Iterations, force evaluations = 175 451

MPI task timing breakdown:
Section |  min time  |  avg time  |  max time  |%varavg| %total
---------------------------------------------------------------
Pair    | 1.4853     | 1.4853     | 1.4853     |   0.0 | 92.09
Neigh   | 0.004499   | 0.004499   | 0.004499   |   0.0 |  0.28
Comm    | 0.002685   | 0.002685   | 0.002685   |   0.0 |  0.17
Output  | 0          | 0          | 0          |   0.0 |  0.00
Modify  | 0.11472    | 0.11472    | 0.11472    |   0.0 |  7.11
Other   |            | 0.005648   |            |       |  0.35

Nlocal:            432 ave         432 max         432 min
Histogram: 1 0 0 0 0 0 0 0 0 0
Nghost:           1750 ave        1750 max        1750 min
Histogram: 1 0 0 0 0 0 0 0 0 0
Neighs:          16615 ave       16615 max       16615 min
Histogram: 1 0 0 0 0 0 0 0 0 0
FullNghs:        33230 ave       33230 max       33230 min
Histogram: 1 0 0 0 0 0 0 0 0 0

Total # of neighbors = 33230
Ave neighs/atom = 76.921296
Neighbor list builds = 6
Dangerous builds = 0
Minimized PE/atom: -3.31468193881149 eV/atom
=== STAGE 2: NPT Equilibration at 200 K ===
No /omp style for force computation currently active
Setting up Verlet run ...
  Unit style    : metal
  Current step  : 0
  Time step     : 0.002
Per MPI rank memory allocation (min/avg/max) = 18.17 | 18.17 | 18.17 Mbytes
   Step          Temp          PotEng         KinEng         TotEng         Press          Volume           Lx             Ly             Lz      
         0   200           -1431.9426      11.142224     -1420.8004     -39158.364      11899.199      16.143248      27.960925      26.361813    
       500   518.92297     -1607.3093      28.909781     -1578.3995     -3921.1864      6917.6754      13.47323       23.336319      22.001693    
      1000   202.32455     -1653.7134      11.271728     -1642.4417     -71.536118      6397.5228      13.126702      22.736114      21.435814    
      1500   197.61251     -1664.7261      11.009215     -1653.7169      2222.7839      6269.3056      13.038415      22.583198      21.291643    
      2000   202.82205     -1668.2029      11.299444     -1656.9035     -3347.1083      6257.3253      13.030105      22.568804      21.278072    
      2500   205.7862      -1677.9108      11.46458      -1666.4463     -848.50491      6147.5493      12.953457      22.436045      21.152906    
      3000   191.85128     -1680.0155      10.68825      -1669.3273      1703.5231      6108.5278      12.925991      22.388473      21.108055    
      3500   209.37155     -1681.0384      11.664324     -1669.374       1450.5777      6116.652       12.931719      22.398394      21.117409    
      4000   192.83784     -1682.6684      10.743212     -1671.9252      3868.6663      6074.932       12.902251      22.347354      21.069287    
      4500   209.0319      -1684.4984      11.645402     -1672.853       610.99037      6114.7683      12.930391      22.396095      21.115241    
      5000   197.03055     -1684.5203      10.976793     -1673.5435      3680.873       6074.6816      12.902073      22.347047      21.068998    
      5500   196.21278     -1685.9457      10.931234     -1675.0145      958.69062      6092.1134      12.914403      22.368402      21.089131    
      6000   194.2493      -1686.2727      10.821847     -1675.4509     -813.702        6084.7057      12.909166      22.359332      21.08058     
      6500   225.27041     -1686.828       12.550067     -1674.2779      1271.8767      6093.3819      12.915299      22.369954      21.090595    
      7000   209.22201     -1686.2065      11.655993     -1674.5505      1804.924       6083.8957      12.908593      22.35834       21.079645    
      7500   195.89967     -1686.8353      10.91379      -1675.9215     -1935.8862      6118.6456      12.933124      22.400828      21.119703    
      8000   185.29154     -1686.677       10.3228       -1676.3542     -564.20881      6109.775       12.926871      22.389997      21.109492    
      8500   203.72738     -1686.3988      11.349881     -1675.0489      1133.2316      6093.759       12.915566      22.370416      21.09103     
      9000   208.37708     -1686.8809      11.608921     -1675.2719     -178.12385      6092.0856      12.914383      22.368368      21.089099    
      9500   204.75392     -1688.2597      11.407071     -1676.8526     -2389.4862      6092.6962      12.914815      22.369115      21.089804    
     10000   192.55048     -1689.934       10.727204     -1679.2068     -3111.5377      6099.8231      12.919848      22.377834      21.098024    
     10500   191.91826     -1689.2859      10.691982     -1678.5939      2254.601       6068.635       12.897791      22.33963       21.062005    
     11000   206.4906      -1689.3865      11.503823     -1677.8827      1085.0657      6062.6337      12.893538      22.332263      21.05506     
     11500   216.78327     -1689.5189      12.077239     -1677.4417     -217.97017      6075.6131      12.902733      22.348189      21.070074    
     12000   225.03745     -1689.1886      12.537089     -1676.6515      2653.4328      6069.8887      12.898679      22.341168      21.063455    
     12500   197.15513     -1689.4331      10.983733     -1678.4494      254.44045      6063.3248      12.894028      22.333112      21.05586     
     13000   207.91999     -1690.0913      11.583456     -1678.5079      1615.4873      6069.8698      12.898666      22.341145      21.063433    
     13500   194.01962     -1689.6094      10.809051     -1678.8004     -1547.0844      6064.8399      12.895102      22.334972      21.057613    
     14000   192.85659     -1690.0443      10.744257     -1679.3         3064.9425      6070.3533      12.899008      22.341738      21.063993    
     14500   188.25428     -1690.1758      10.487857     -1679.688       748.56819      6077.2986      12.903926      22.350255      21.072023    
     15000   196.79973     -1689.7557      10.963934     -1678.7917      317.40476      6075.8757      12.902919      22.348511      21.070378    
     15500   199.1704      -1689.9819      11.096007     -1678.8859     -1431.5142      6075.3604      12.902554      22.347879      21.069782    
     16000   214.08169     -1690.2061      11.926731     -1678.2794     -3835.7316      6078.0805      12.904479      22.351214      21.072926    
     16500   205.39251     -1690.1987      11.442647     -1678.7561     -2235.9692      6086.8846      12.910707      22.362         21.083096    
     17000   200.98878     -1690.509       11.19731      -1679.3117      849.04424      6060.1041      12.891745      22.329157      21.052131    
     17500   197.88164     -1690.7307      11.024208     -1679.7065     -2242.089       6078.2185      12.904577      22.351383      21.073086    
     18000   210.82028     -1690.8362      11.745035     -1679.0911      4296.669       6024.9012      12.866734      22.285836      21.011288    
     18500   197.42591     -1690.9691      10.998819     -1679.9703     -5562.2642      6100.9573      12.920649      22.379221      21.099332    
     19000   210.06819     -1692.2598      11.703135     -1680.5567      494.2538       6047.6112      12.88288       22.313802      21.037655    
     19500   195.40759     -1692.2566      10.886376     -1681.3702     -1595.3813      6042.4717      12.879229      22.30748       21.031693    
     20000   205.4684      -1692.0758      11.446875     -1680.6289     -1835.8776      6066.7035      12.896423      22.337259      21.05977     
Loop time of 164.527 on 8 procs for 20000 steps with 432 atoms

Performance: 21.006 ns/day, 1.143 hours/ns, 121.561 timesteps/s, 52.514 katom-step/s
88.6% CPU use with 1 MPI tasks x 8 OpenMP threads

MPI task timing breakdown:
Section |  min time  |  avg time  |  max time  |%varavg| %total
---------------------------------------------------------------
Pair    | 142.51     | 142.51     | 142.51     |   0.0 | 86.62
Neigh   | 0.020756   | 0.020756   | 0.020756   |   0.0 |  0.01
Comm    | 0.15172    | 0.15172    | 0.15172    |   0.0 |  0.09
Output  | 0.00285    | 0.00285    | 0.00285    |   0.0 |  0.00
Modify  | 21.818     | 21.818     | 21.818     |   0.0 | 13.26
Other   |            | 0.02622    |            |       |  0.02

Nlocal:            432 ave         432 max         432 min
Histogram: 1 0 0 0 0 0 0 0 0 0
Nghost:           2467 ave        2467 max        2467 min
Histogram: 1 0 0 0 0 0 0 0 0 0
Neighs:          32526 ave       32526 max       32526 min
Histogram: 1 0 0 0 0 0 0 0 0 0
FullNghs:        65052 ave       65052 max       65052 min
Histogram: 1 0 0 0 0 0 0 0 0 0

Total # of neighbors = 65052
Ave neighs/atom = 150.58333
Neighbor list builds = 25
Dangerous builds = 0
=== STAGE 3: NPT Production at 200 K ===
No /omp style for force computation currently active
Setting up Verlet run ...
  Unit style    : metal
  Current step  : 0
  Time step     : 0.001
Per MPI rank memory allocation (min/avg/max) = 18.73 | 18.73 | 18.73 Mbytes
   Step          Temp          PotEng         KinEng         TotEng         Press          Volume           Lx             Ly             Lz      
         0   205.4684      -1692.0758      11.446875     -1680.6289     -1835.8776      6066.7035      12.896423      22.337259      21.05977     
       500   202.15992     -1692.4881      11.262556     -1681.2255     -691.40578      6038.4684      12.876384      22.302552      21.027048    
      1000   192.7547      -1692.4502      10.738581     -1681.7116      2520.111       6033.187       12.872629      22.296048      21.020916    
      1500   185.46446     -1693.0701      10.332433     -1682.7377      1001.1812      6035.001       12.873919      22.298282      21.023022    
      2000   198.56677     -1693.8184      11.062378     -1682.756       3447.6389      6026.4351      12.867826      22.287728      21.013071    
      2500   212.67269     -1693.3668      11.848234     -1681.5186      1013.4569      6041.5598      12.878581      22.306357      21.030635    
      3000   204.39155     -1693.9428      11.386883     -1682.5559     -989.5665       6043.9886      12.880307      22.309346      21.033453    
      3500   194.16132     -1694.3042      10.816945     -1683.4872     -768.68696      6038.3979      12.876334      22.302465      21.026966    
      4000   191.44369     -1694.8051      10.665543     -1684.1395      2302.8428      6016.543       12.860781      22.275526      21.001567    
      4500   196.77564     -1694.8895      10.962592     -1683.9269      2930.542       6016.0322      12.860417      22.274896      21.000973    
      5000   202.48635     -1694.685       11.280742     -1683.4042      165.79134      6030.8173      12.870944      22.293129      21.018163    
      5500   200.42331     -1694.1745      11.165807     -1683.0087      122.27319      6023.8577      12.865991      22.28455       21.010075    
      6000   211.12416     -1695.1146      11.761964     -1683.3526      231.2041       6017.6536      12.861572      22.276897      21.00286     
      6500   197.11575     -1695.081       10.98154      -1684.0995     -492.25393      6021.5383      12.864339      22.281689      21.007378    
      7000   200.33287     -1694.6877      11.160769     -1683.5269      111.06782      6020.1269      12.863334      22.279948      21.005737    
      7500   208.38136     -1695.1565      11.609159     -1683.5474      2982.1195      6013.3308      12.858492      22.271561      20.997829    
      8000   197.85125     -1695.283       11.022515     -1684.2605      113.73572      6014.993       12.859677      22.273613      20.999764    
      8500   199.36109     -1695.0112      11.10663      -1683.9046      208.86473      6008.7231      12.855207      22.265871      20.992465    
      9000   193.82862     -1694.7745      10.79841      -1683.9761      2434.1639      6014.6151      12.859407      22.273147      20.999324    
      9500   195.94899     -1694.8031      10.916538     -1683.8866     -257.67201      6030.7204      12.870875      22.293009      21.018051    
     10000   205.27158     -1694.0527      11.43591      -1682.6167      2625.0622      6000.9332      12.849649      22.256245      20.983389    
     10500   212.71024     -1694.6089      11.850326     -1682.7586      1268.5195      6009.9555      12.856086      22.267393      20.9939      
     11000   204.00004     -1695.0259      11.365071     -1683.6608     -769.64132      6031.9012      12.871715      22.294464      21.019422    
     11500   198.50925     -1694.8214      11.059173     -1683.7622      3262.391       6004.7802      12.852394      22.261         20.987872    
     12000   209.0205      -1694.9638      11.644766     -1683.319      -3019.3665      6048.6512      12.883618      22.315081      21.038861    
     12500   213.76919     -1694.2358      11.909321     -1682.3265      3909.6552      6003.9052      12.85177       22.259919      20.986853    
     13000   191.15735     -1693.882       10.64959      -1683.2325      967.40615      6021.4507      12.864277      22.281581      21.007276    
     13500   190.2415      -1694.7924      10.598568     -1684.1939     -1834.3607      6051.7571      12.885823      22.3189        21.042461    
     14000   197.97114     -1694.6796      11.029194     -1683.6504      1094.3965      6021.0758      12.86401       22.281119      21.00684     
     14500   201.17465     -1694.9104      11.207666     -1683.7027     -280.68372      6014.5414      12.859355      22.273056      20.999238    
     15000   194.227       -1694.4399      10.820604     -1683.6193     -1070.6909      6021.8672      12.864574      22.282095      21.007761    
     15500   201.03927     -1695.1236      11.200123     -1683.9235     -2413.5875      6043.8915      12.880238      22.309227      21.033341    
     16000   197.39711     -1695.4434      10.997214     -1684.4462     -3620.8815      6048.1378      12.883254      22.31445       21.038265    
     16500   201.13879     -1695.44        11.205668     -1684.2343     -2060.2449      6039.7928      12.877326      22.304183      21.028585    
     17000   205.51402     -1696.3915      11.449417     -1684.9421     -3027.621       6023.4325      12.865688      22.284025      21.009581    
     17500   197.50996     -1695.8822      11.003502     -1684.8787      2314.2654      5995.9311      12.846078      22.250059      20.977557    
     18000   199.12353     -1695.6223      11.093395     -1684.5289      2263.8401      6006.3627      12.853523      22.262955      20.989716    
     18500   206.82805     -1695.1937      11.522623     -1683.6711     -2324.8517      6028.7392      12.869465      22.290568      21.015749    
     19000   202.77596     -1695.8952      11.296877     -1684.5983     -529.26081      6025.1479      12.866909      22.286141      21.011575    
     19500   203.82708     -1696.6656      11.355436     -1685.3101      1884.6566      6002.2075      12.850558      22.25782       20.984874    
     20000   206.12113     -1696.3031      11.48324      -1684.8199      1030.5829      6000.2264      12.849145      22.255371      20.982565    
     20500   201.66393     -1696.5673      11.234924     -1685.3324      1179.2317      5993.951       12.844664      22.24761       20.975248    
     21000   195.74957     -1695.7738      10.905428     -1684.8683      477.63196      5987.9743      12.840393      22.240213      20.968274    
     21500   205.35609     -1696.744       11.440618     -1685.3034     -1779.2802      6018.9638      12.862506      22.278513      21.004384    
     22000   194.96822     -1696.848       10.861899     -1685.9861      1124.6808      5988.0609      12.840455      22.24032       20.968375    
     22500   193.09872     -1696.386       10.757746     -1685.6283      1853.9028      5996.7779      12.846682      22.251107      20.978545    
     23000   212.47988     -1696.7867      11.837493     -1684.9492     -349.6486       6013.5715      12.858663      22.271858      20.998109    
     23500   213.24834     -1696.3046      11.880304     -1684.4243      2935.1475      5998.5693      12.847962      22.253322      20.980633    
     24000   200.67971     -1696.1034      11.180092     -1684.9233      1037.279       6005.5851      12.852969      22.261994      20.98881     
     24500   210.72219     -1697.6276      11.73957      -1685.8881      3094.2128      5978.7011      12.833761      22.228726      20.957444    
     25000   200.08007     -1696.9812      11.146685     -1685.8345      2129.8111      5995.4477      12.845733      22.249461      20.976993    
     25500   195.1068      -1695.3824      10.869619     -1684.5128     -959.01385      6031.3543      12.871326      22.29379       21.018787    
     26000   201.71171     -1696.4274      11.237586     -1685.1898     -1533.0882      6028.9159      12.869591      22.290785      21.015954    
     26500   200.00417     -1697.0596      11.142457     -1685.9172     -756.5062       6011.2016      12.856974      22.268932      20.995351    
     27000   207.54691     -1697.1171      11.562671     -1685.5545     -545.82725      6016.4583      12.860721      22.275422      21.001469    
     27500   207.87733     -1696.54        11.581079     -1684.9589     -995.86077      6022.6172      12.865108      22.28302       21.008633    
     28000   198.49966     -1696.918       11.058639     -1685.8593     -1783.4595      6008.6245      12.855136      22.265749      20.99235     
     28500   204.20941     -1697.0908      11.376735     -1685.714      -42.071605      6010.834       12.856712      22.268478      20.994923    
     29000   201.54877     -1696.512       11.228508     -1685.2835     -2786.0989      6040.2618      12.877659      22.30476       21.029129    
     29500   221.62957     -1696.7953      12.347232     -1684.4481      2108.9883      5997.176       12.846967      22.251599      20.979009    
     30000   203.68695     -1696.5279      11.347629     -1685.1802      1574.2334      5991.7826      12.843114      22.244927      20.972718    
     30500   199.22135     -1697.0657      11.098845     -1685.9668      4238.7479      5993.4151      12.844281      22.246947      20.974623    
     31000   191.28393     -1697.0656      10.656642     -1686.409      -447.32551      6003.1687      12.851244      22.259008      20.985994    
     31500   197.36553     -1696.7968      10.995455     -1685.8014      3498.1159      5993.8346      12.84458       22.247466      20.975112    
     32000   204.26207     -1697.375       11.379669     -1685.9954     -1435.0829      6015.0272      12.859701      22.273655      20.999804    
     32500   190.29425     -1696.523       10.601506     -1685.9215     -1226.2799      6015.6372      12.860136      22.274408      21.000513    
     33000   208.19455     -1696.4658      11.598752     -1684.867      -1662.038       6029.1384      12.869749      22.29106       21.016213    
     33500   199.78304     -1696.9312      11.130138     -1685.8011     -2599.1594      6037.6037      12.87577       22.301487      21.026044    
     34000   190.25377     -1697.1318      10.599251     -1686.5325     -2424.3889      6036.4801      12.874971      22.300104      21.02474     
     34500   201.76701     -1696.6825      11.240667     -1685.4418     -1915.3777      6026.9576      12.868197      22.288372      21.013678    
     35000   196.47192     -1696.1589      10.945671     -1685.2133      631.26595      6016.3747      12.860661      22.275318      21.001372    
     35500   190.51519     -1697.8053      10.613815     -1687.1915     -861.45502      6010.0484      12.856152      22.267508      20.994008    
     36000   188.48963     -1696.3683      10.500969     -1685.8673     -864.92328      6024.6299      12.866541      22.285502      21.010973    
     36500   199.50644     -1696.8396      11.114728     -1685.7249     -674.92438      6007.9392      12.854648      22.264903      20.991552    
     37000   196.24404     -1697.5921      10.932976     -1686.6591     -1097.7041      6004.433       12.852147      22.260571      20.987467    
     37500   197.78451     -1697.295       11.018797     -1686.2762     -5566.9093      6038.446       12.876369      22.302524      21.027022    
     38000   210.62658     -1697.4413      11.734243     -1685.707       4218.3797      5985.7929      12.838833      22.237512      20.965727    
     38500   222.1661      -1696.8292      12.377123     -1684.4521      722.79103      6015.8255      12.86027       22.274641      21.000733    
     39000   200.84798     -1697.2772      11.189466     -1686.0877      872.13141      6004.9182      12.852493      22.26117       20.988033    
     39500   192.70442     -1697.6238      10.73578      -1686.888      -382.66323      6006.9111      12.853914      22.263633      20.990354    
     40000   196.16342     -1696.9282      10.928485     -1685.9997     -802.79659      6016.8716      12.861015      22.275932      21.00195     
     40500   204.44168     -1696.5776      11.389675     -1685.1879      4082.0165      5983.5927      12.83726       22.234787      20.963158    
     41000   201.20604     -1696.9495      11.209414     -1685.7401     -3178.4703      6024.2413      12.866264      22.285023      21.010521    
     41500   204.95087     -1697.3329      11.418043     -1685.9148     -89.84903       6011.1034      12.856904      22.268811      20.995236    
     42000   187.32957     -1698.2207      10.436341     -1687.7844     -1746.4584      6024.9307      12.866755      22.285873      21.011322    
     42500   204.49666     -1697.3585      11.392738     -1685.9657     -4363.9189      6025.4314      12.867111      22.28649       21.011904    
     43000   202.60052     -1696.762       11.287102     -1685.4749      1218.7377      5995.4429      12.845729      22.249456      20.976988    
     43500   215.71708     -1698.1335      12.017841     -1686.1157      399.71892      6002.3436      12.850656      22.257989      20.985033    
     44000   199.78629     -1697.0419      11.130318     -1685.9116     -2506.1908      6018.4996      12.862175      22.277941      21.003844    
     44500   189.11377     -1697.6022      10.53574      -1687.0665     -33.237427      6008.9495      12.855368      22.266151      20.992728    
     45000   189.87017     -1697.5155      10.577881     -1686.9376      654.35569      5993.4544      12.844309      22.246995      20.974668    
     45500   202.80139     -1698.1033      11.298293     -1686.805      -1903.058       6008.6837      12.855179      22.265823      20.992419    
     46000   203.985       -1697.448       11.364233     -1686.0838     -1501.3697      6013.62        12.858698      22.271918      20.998166    
     46500   203.39508     -1697.3551      11.331368     -1686.0237      243.27322      6012.7373      12.858069      22.270828      20.997138    
     47000   192.13494     -1697.4302      10.704053     -1686.7261     -245.87622      6000.6913      12.849476      22.255946      20.983107    
     47500   199.50594     -1697.9147      11.1147       -1686.8         2195.867       5997.0925      12.846907      22.251496      20.978912    
     48000   200.5088      -1697.9196      11.17057      -1686.749      -1043.5715      6036.2826      12.874831      22.299861      21.02451     
     48500   209.02513     -1697.6876      11.645025     -1686.0426      829.23453      6003.9738      12.851819      22.260003      20.986932    
     49000   204.10452     -1697.3441      11.370892     -1685.9732      2294.5003      6001.1423      12.849798      22.256504      20.983633    
     49500   193.64582     -1698.319       10.788226     -1687.5308      2736.7206      5984.8976      12.838193      22.236403      20.964682    
     50000   205.74647     -1698.1475      11.462367     -1686.6852      3557.2966      5996.4443      12.846444      22.250694      20.978156    
Loop time of 407.657 on 8 procs for 50000 steps with 432 atoms

Performance: 10.597 ns/day, 2.265 hours/ns, 122.652 timesteps/s, 52.986 katom-step/s
89.3% CPU use with 1 MPI tasks x 8 OpenMP threads

MPI task timing breakdown:
Section |  min time  |  avg time  |  max time  |%varavg| %total
---------------------------------------------------------------
Pair    | 356.88     | 356.88     | 356.88     |   0.0 | 87.55
Neigh   | 0.00257    | 0.00257    | 0.00257    |   0.0 |  0.00
Comm    | 0.3575     | 0.3575     | 0.3575     |   0.0 |  0.09
Output  | 0.006275   | 0.006275   | 0.006275   |   0.0 |  0.00
Modify  | 50.349     | 50.349     | 50.349     |   0.0 | 12.35
Other   |            | 0.0587     |            |       |  0.01

Nlocal:            432 ave         432 max         432 min
Histogram: 1 0 0 0 0 0 0 0 0 0
Nghost:           2481 ave        2481 max        2481 min
Histogram: 1 0 0 0 0 0 0 0 0 0
Neighs:          32608 ave       32608 max       32608 min
Histogram: 1 0 0 0 0 0 0 0 0 0
FullNghs:        65216 ave       65216 max       65216 min
Histogram: 1 0 0 0 0 0 0 0 0 0

Total # of neighbors = 65216
Ave neighs/atom = 150.96296
Neighbor list builds = 3
Dangerous builds = 0

=== FINAL RESULTS: DHCP at 200 K ===
Atoms: 432 | PE/atom: -3.92944159987788 eV/atom
WARNING: Detected non-ASCII characters in input. Will try to continue by replacing with ASCII equivalents where known. (src/input.cpp:479)
Volume: 5996.44425355949 …³ | Area: 285.84230065116 ²
==========================================
DHCP 200 432 -3.92944159987788 5996.44425355949 12.8464442241299 22.2506940959003 20.9781555770414 285.84230065116
Simulation complete!
Total wall time: 0:09:33
