LAMMPS (10 Sep 2025)
  using 8 OpenMP thread(s) per MPI task
Loaded 1 plugins from C:\Users\J.Shiva\AppData\Local\LAMMPS 64-bit 10Sep2025\plugins
using multi-threaded neighbor list subroutines
Reading data file ...
  orthogonal box = (0 0 0) to (22.83 22.83 22.83)
  1 by 1 by 1 MPI processor grid
  reading atoms ...
  864 atoms
  read_data CPU = 0.003 seconds
=== STAGE 1: Energy Minimization ===
Switching to 'neigh_modify every 1 delay 0 check yes' setting during minimization
No /omp style for force computation currently active
Neighbor list info ...
  update: every = 1 steps, delay = 0 steps, check = yes
  max neighbors/atom: 4000, page size: 100000
  master list distance cutoff = 8
  ghost atom cutoff = 8
  binsize = 4, bins = 6 6 6
  2 neighbor lists, perpetual/occasional/extra = 2 0 0
  (1) pair meam, perpetual
      attributes: full, newton on, omp
      pair build: full/bin/atomonly/omp
      stencil: full/bin/3d
      bin: standard
  (2) pair meam, perpetual, half/full from (1)
      attributes: half, newton on, omp
      pair build: halffull/newton/omp
      stencil: none
      bin: none
Setting up cg style minimization ...
  Unit style    : metal
  Current step  : 0
Per MPI rank memory allocation (min/avg/max) = 20.91 | 20.91 | 20.91 Mbytes
   Step          Temp          PotEng         KinEng         TotEng         Press          Volume           Lx             Ly             Lz      
         0   0             -3257.5623      0             -3257.5623     -36597.208      11899.199      22.83          22.83          22.83        
        64   0             -3385.2785      0             -3385.2785     -39657.006      11899.199      22.83          22.83          22.83        
Loop time of 2.94372 on 8 procs for 64 steps with 864 atoms

93.4% CPU use with 1 MPI tasks x 8 OpenMP threads

Minimization stats:
  Stopping criterion = energy tolerance
  Energy initial, next-to-last, final = 
     -3257.56233513294  -3385.27737042744  -3385.27852776306
  Force two-norm initial, final = 71.851972 1.3504685
  Force max component initial, final = 5.8011362 0.19763812
  Final line search alpha, max atom move = 0.12143677 0.024000534
  Iterations, force evaluations = 64 212

MPI task timing breakdown:
Section |  min time  |  avg time  |  max time  |%varavg| %total
---------------------------------------------------------------
Pair    | 2.9148     | 2.9148     | 2.9148     |   0.0 | 99.02
Neigh   | 0          | 0          | 0          |   0.0 |  0.00
Comm    | 0.002348   | 0.002348   | 0.002348   |   0.0 |  0.08
Output  | 0          | 0          | 0          |   0.0 |  0.00
Modify  | 0.024495   | 0.024495   | 0.024495   |   0.0 |  0.83
Other   |            | 0.002073   |            |       |  0.07

Nlocal:            864 ave         864 max         864 min
Histogram: 1 0 0 0 0 0 0 0 0 0
Nghost:           3767 ave        3767 max        3767 min
Histogram: 1 0 0 0 0 0 0 0 0 0
Neighs:          60480 ave       60480 max       60480 min
Histogram: 1 0 0 0 0 0 0 0 0 0
FullNghs:       120960 ave      120960 max      120960 min
Histogram: 1 0 0 0 0 0 0 0 0 0

Total # of neighbors = 120960
Ave neighs/atom = 140
Neighbor list builds = 0
Dangerous builds = 0
Minimized PE/atom: -3.91814644417021 eV/atom
=== STAGE 2: NPT Equilibration at 650 K ===
No /omp style for force computation currently active
Setting up Verlet run ...
  Unit style    : metal
  Current step  : 0
  Time step     : 0.002
Per MPI rank memory allocation (min/avg/max) = 19.91 | 19.91 | 19.91 Mbytes
   Step          Temp          PotEng         KinEng         TotEng         Press          Volume           Lx             Ly             Lz      
         0   650           -3385.2785      72.508478     -3312.77       -33148.367      11899.199      22.83          22.83          22.83        
       500   632.40361     -3325.6194      70.545574     -3255.0738      4894.889       11561.496      22.61195       22.61195       22.61195     
      1000   642.37264     -3324.9982      71.657634     -3253.3406     -862.52347      11706.825      22.7063        22.7063        22.7063      
      1500   671.49376     -3324.6765      74.90614      -3249.7703     -360.10977      11671.916      22.683708      22.683708      22.683708    
      2000   671.18992     -3322.7408      74.872246     -3247.8686     -2113.5562      11802.335      22.767882      22.767882      22.767882    
      2500   666.86908     -3327.1486      74.390249     -3252.7583      2072.9622      11765.959      22.744468      22.744468      22.744468    
      3000   645.9734      -3328.615       72.059305     -3256.5557     -543.36651      11797.109      22.764522      22.764522      22.764522    
      3500   627.66405     -3326.1379      70.016869     -3256.121       5648.0302      11773.668      22.749434      22.749434      22.749434    
      4000   668.02862     -3332.2275      74.519598     -3257.7079     -616.00738      11807.981      22.771513      22.771513      22.771513    
      4500   643.30324     -3338.6412      71.761445     -3266.8798     -4875.3695      11873.48       22.81354       22.81354       22.81354     
      5000   641.22231     -3338.3165      71.529314     -3266.7871      1480.4333      11781.094      22.754216      22.754216      22.754216    
      5500   675.82604     -3333.3582      75.389412     -3257.9688     -4014.513       11901.955      22.831762      22.831762      22.831762    
      6000   649.31227     -3341.3094      72.431762     -3268.8776      5971.9351      11760.059      22.740666      22.740666      22.740666    
      6500   628.66648     -3337.1979      70.128692     -3267.0692     -4425.467       11891.331      22.824967      22.824967      22.824967    
      7000   662.35128     -3341.8646      73.886283     -3267.9783     -844.32548      11852.968      22.800395      22.800395      22.800395    
      7500   625.271       -3342.81        69.749921     -3273.06        322.78408      11843.494      22.794318      22.794318      22.794318    
      8000   630.24539     -3341.7497      70.304822     -3271.4449     -2261.1808      11907.438      22.835268      22.835268      22.835268    
      8500   666.89303     -3342.3663      74.392921     -3267.9734      3745.2933      11811.808      22.773973      22.773973      22.773973    
      9000   635.02543     -3344.8286      70.838043     -3273.9906     -584.6305       11856.394      22.802592      22.802592      22.802592    
      9500   644.42312     -3344.9232      71.886369     -3273.0368     -1263.6888      11930.617      22.850075      22.850075      22.850075    
     10000   651.50453     -3341.7136      72.676311     -3269.0373     -868.64899      11895.313      22.827514      22.827514      22.827514    
     10500   637.68937     -3344.1084      71.135209     -3272.9732     -5000.4135      11951.751      22.86356       22.86356       22.86356     
     11000   658.66035     -3349.7022      73.474553     -3276.2276      3523.2264      11820.692      22.779681      22.779681      22.779681    
     11500   648.34527     -3351.0448      72.323891     -3278.721       4411.8758      11787.374      22.758259      22.758259      22.758259    
     12000   669.56928     -3349.7164      74.691461     -3275.025      -5041.4556      11958.908      22.868123      22.868123      22.868123    
     12500   622.51616     -3353.3802      69.442615     -3283.9375      2732.2722      11838.788      22.791299      22.791299      22.791299    
     13000   630.10042     -3353.012       70.28865      -3282.7233     -3902.6169      11920.69       22.843736      22.843736      22.843736    
     13500   656.9985      -3351.4041      73.289171     -3278.1149     -785.95186      11885.449      22.821203      22.821203      22.821203    
     14000   648.50275     -3354.3829      72.341458     -3282.0414     -2402.7325      11883.544      22.819983      22.819983      22.819983    
     14500   630.92278     -3355.4767      70.380386     -3285.0963      212.57291      11873.834      22.813766      22.813766      22.813766    
     15000   657.4893      -3354.5487      73.343921     -3281.2048     -401.16353      11890.251      22.824276      22.824276      22.824276    
     15500   663.57194     -3354.3244      74.022449     -3280.302       2884.6792      11822.342      22.780741      22.780741      22.780741    
     16000   618.15379     -3351.1762      68.955986     -3282.2202     -4520.3745      11923.522      22.845544      22.845544      22.845544    
     16500   647.42233     -3358.8331      72.220936     -3286.6121      311.97756      11838.108      22.790863      22.790863      22.790863    
     17000   646.23819     -3358.7996      72.088842     -3286.7108     -6353.8797      11950.548      22.862793      22.862793      22.862793    
     17500   639.28665     -3359.9502      71.313388     -3288.6368      3134.2688      11809.668      22.772597      22.772597      22.772597    
     18000   652.597       -3356.3775      72.798178     -3283.5793     -1782.5976      11885.566      22.821277      22.821277      22.821277    
     18500   658.59078     -3358.1255      73.466793     -3284.6587      690.83801      11917.046      22.841408      22.841408      22.841408    
     19000   667.78196     -3360.9855      74.492082     -3286.4934      5043.7551      11765.211      22.743985      22.743985      22.743985    
     19500   667.20892     -3358.3222      74.428159     -3283.894      -4167.0764      11952.416      22.863983      22.863983      22.863983    
     20000   656.34814     -3364.3847      73.216623     -3291.1681     -1558.8006      11833.043      22.787612      22.787612      22.787612    
Loop time of 297.772 on 8 procs for 20000 steps with 864 atoms

Performance: 11.606 ns/day, 2.068 hours/ns, 67.165 timesteps/s, 58.031 katom-step/s
93.1% CPU use with 1 MPI tasks x 8 OpenMP threads

MPI task timing breakdown:
Section |  min time  |  avg time  |  max time  |%varavg| %total
---------------------------------------------------------------
Pair    | 282.83     | 282.83     | 282.83     |   0.0 | 94.98
Neigh   | 0.16905    | 0.16905    | 0.16905    |   0.0 |  0.06
Comm    | 0.21539    | 0.21539    | 0.21539    |   0.0 |  0.07
Output  | 0.003713   | 0.003713   | 0.003713   |   0.0 |  0.00
Modify  | 14.501     | 14.501     | 14.501     |   0.0 |  4.87
Other   |            | 0.04784    |            |       |  0.02

Nlocal:            864 ave         864 max         864 min
Histogram: 1 0 0 0 0 0 0 0 0 0
Nghost:           3438 ave        3438 max        3438 min
Histogram: 1 0 0 0 0 0 0 0 0 0
Neighs:          66639 ave       66639 max       66639 min
Histogram: 1 0 0 0 0 0 0 0 0 0
FullNghs:       133278 ave      133278 max      133278 min
Histogram: 1 0 0 0 0 0 0 0 0 0

Total # of neighbors = 133278
Ave neighs/atom = 154.25694
Neighbor list builds = 61
Dangerous builds = 0
=== STAGE 3: NPT Production at 650 K ===
No /omp style for force computation currently active
Setting up Verlet run ...
  Unit style    : metal
  Current step  : 0
  Time step     : 0.001
Per MPI rank memory allocation (min/avg/max) = 20.01 | 20.01 | 20.01 Mbytes
   Step          Temp          PotEng         KinEng         TotEng         Press          Volume           Lx             Ly             Lz      
         0   656.34814     -3364.3847      73.216623     -3291.1681     -1558.8006      11833.043      22.787612      22.787612      22.787612    
       500   618.58346     -3362.143       69.003916     -3293.1391      701.53113      11836.554      22.789866      22.789866      22.789866    
      1000   636.5155      -3358.4285      71.004263     -3287.4242      140.06717      11883.82       22.82016       22.82016       22.82016     
      1500   641.04874     -3363.4446      71.509952     -3291.9346     -3517.5412      11893.662      22.826459      22.826459      22.826459    
      2000   658.86008     -3359.297       73.496833     -3285.8002      4850.1914      11818.24       22.778106      22.778106      22.778106    
      2500   683.35197     -3362.3071      76.228941     -3286.0781     -1978.2696      11893.241      22.826189      22.826189      22.826189    
      3000   670.53907     -3364.5273      74.799642     -3289.7277     -2578.7815      11899.33       22.830084      22.830084      22.830084    
      3500   629.96018     -3366.199       70.273006     -3295.926      -2049.0845      11838.56       22.791153      22.791153      22.791153    
      4000   631.94675     -3363.2744      70.494611     -3292.7798     -34.297567      11840.375      22.792317      22.792317      22.792317    
      4500   645.78724     -3362.4855      72.038538     -3290.4469      3535.779       11850.271      22.798666      22.798666      22.798666    
      5000   655.46555     -3363.12        73.118169     -3290.0018      1183.3558      11811.186      22.773573      22.773573      22.773573    
      5500   635.81585     -3361.5682      70.926215     -3290.642       1465.8669      11827.36       22.783964      22.783964      22.783964    
      6000   654.23676     -3365.6073      72.981095     -3292.6262      866.96987      11834.14       22.788316      22.788316      22.788316    
      6500   620.69452     -3364.6144      69.239407     -3295.375       2308.1582      11824.401      22.782063      22.782063      22.782063    
      7000   664.69288     -3364.0715      74.147491     -3289.924       554.95871      11845.405      22.795544      22.795544      22.795544    
      7500   660.83992     -3364.3478      73.717688     -3290.6301     -3620.2734      11868.274      22.810205      22.810205      22.810205    
      8000   618.96895     -3363.5065      69.046917     -3294.4596     -1692.7896      11849.675      22.798283      22.798283      22.798283    
      8500   648.27439     -3366.1468      72.315984     -3293.8308      3518.3563      11810.031      22.77283       22.77283       22.77283     
      9000   628.90385     -3370.0721      70.155171     -3299.917       410.35947      11845.467      22.795585      22.795585      22.795585    
      9500   645.82259     -3364.0712      72.042482     -3292.0288     -3114.5071      11878.842      22.816973      22.816973      22.816973    
     10000   643.7978      -3367.1367      71.816614     -3295.3201      6618.273       11769.832      22.746963      22.746963      22.746963    
     10500   653.72061     -3369.2912      72.923519     -3296.3677      706.37966      11826.67       22.78352       22.78352       22.78352     
     11000   637.60083     -3367.0849      71.125332     -3295.9596      5528.1513      11770.657      22.747494      22.747494      22.747494    
     11500   630.92133     -3365.523       70.380224     -3295.1428     -3374.023       11859.839      22.8048        22.8048        22.8048      
     12000   668.78164     -3363.0979      74.603599     -3288.4943     -1279.9625      11861.436      22.805824      22.805824      22.805824    
     12500   638.16987     -3365.1273      71.18881      -3293.9385     -6420.3466      11947.827      22.861057      22.861057      22.861057    
     13000   656.54894     -3368.1713      73.239023     -3294.9323      2277.7969      11824.167      22.781913      22.781913      22.781913    
     13500   652.03431     -3366.8925      72.735409     -3294.1571     -1020.925       11875.386      22.81476       22.81476       22.81476     
     14000   651.08544     -3368.0516      72.629561     -3295.422       1386.1289      11809.688      22.77261       22.77261       22.77261     
     14500   672.70289     -3366.7642      75.04102      -3291.7231     -2551.3372      11906.23       22.834496      22.834496      22.834496    
     15000   669.01441     -3367.9766      74.629564     -3293.347       2731.8171      11804.963      22.769572      22.769572      22.769572    
     15500   638.14815     -3368.0613      71.186387     -3296.8749     -175.46076      11888.758      22.82332       22.82332       22.82332     
     16000   623.78586     -3368.6262      69.584252     -3299.042      -1332.2223      11872.203      22.812722      22.812722      22.812722    
     16500   675.33942     -3368.6835      75.335129     -3293.3483      1565.3437      11824.513      22.782135      22.782135      22.782135    
     17000   659.52307     -3370.6675      73.570791     -3297.0968      212.9553       11809.298      22.772359      22.772359      22.772359    
     17500   608.72465     -3366.8466      67.904151     -3298.9425     -1040.8178      11873.921      22.813822      22.813822      22.813822    
     18000   635.39548     -3367.7896      70.879323     -3296.9103      2106.9303      11830.767      22.786151      22.786151      22.786151    
     18500   641.84754     -3367.162       71.599059     -3295.563       848.29864      11859.597      22.804645      22.804645      22.804645    
     19000   629.51248     -3370.6851      70.223065     -3300.4621     -37.674279      11829.354      22.785244      22.785244      22.785244    
     19500   676.87934     -3371.5777      75.506909     -3296.0708     -2033.3551      11838.524      22.79113       22.79113       22.79113     
     20000   670.22285     -3368.861       74.764368     -3294.0966     -4047.0191      11945.051      22.859286      22.859286      22.859286    
     20500   651.70417     -3370.057       72.698581     -3297.3584      2977.3074      11827.435      22.784011      22.784011      22.784011    
     21000   632.4629      -3371.5334      70.552188     -3300.9812      2729.2024      11821.518      22.780212      22.780212      22.780212    
     21500   665.29846     -3371.8105      74.215044     -3297.5955     -4342.1776      11902.673      22.832221      22.832221      22.832221    
     22000   678.8603      -3370.6859      75.727888     -3294.958      -445.19322      11864.163      22.807571      22.807571      22.807571    
     22500   642.78272     -3372.0745      71.703379     -3300.3712     -238.57016      11814.08       22.775433      22.775433      22.775433    
     23000   627.49011     -3370.2169      69.997466     -3300.2194     -393.73881      11880.647      22.818129      22.818129      22.818129    
     23500   649.6776      -3372.7813      72.472514     -3300.3088      1297.5901      11835.851      22.789414      22.789414      22.789414    
     24000   682.55425     -3370.2674      76.139954     -3294.1275     -1888.888       11854.919      22.801646      22.801646      22.801646    
     24500   650.92751     -3372.8401      72.611944     -3300.2282     -1736.9753      11838.41       22.791057      22.791057      22.791057    
     25000   642.64412     -3374.5042      71.687919     -3302.8162     -1039.2093      11811.035      22.773476      22.773476      22.773476    
     25500   640.97644     -3375.8541      71.501887     -3304.3522      2350.3107      11751.417      22.735093      22.735093      22.735093    
     26000   616.83357     -3370.7964      68.808713     -3301.9877     -2571.1403      11904.391      22.83332       22.83332       22.83332     
     26500   618.82136     -3377.2514      69.030454     -3308.221      -2358.5003      11826.785      22.783594      22.783594      22.783594    
     27000   669.40115     -3374.4407      74.672706     -3299.768       615.24772      11835.816      22.789392      22.789392      22.789392    
     27500   665.4035      -3374.077       74.226761     -3299.8503     -2417.9551      11899.345      22.830093      22.830093      22.830093    
     28000   663.3576      -3370.7466      73.998538     -3296.748       2845.0557      11817.549      22.777662      22.777662      22.777662    
     28500   679.28747     -3374.3659      75.77554      -3298.5903      971.56387      11824.206      22.781938      22.781938      22.781938    
     29000   649.26839     -3376.1861      72.426867     -3303.7592     -3352.5034      11902.008      22.831796      22.831796      22.831796    
     29500   651.71704     -3378.6113      72.700016     -3305.9113      1984.862       11802.331      22.76788       22.76788       22.76788     
     30000   670.87376     -3377.3541      74.836977     -3302.5171     -3667.4089      11911.983      22.838173      22.838173      22.838173    
     30500   626.28548     -3370.5663      69.863088     -3300.7033     -2553.9985      11886.009      22.821561      22.821561      22.821561    
     31000   647.23293     -3375.7142      72.199808     -3303.5144      259.367        11843.797      22.794513      22.794513      22.794513    
     31500   639.18341     -3377.073       71.301872     -3305.7711      1875.1893      11806.349      22.770463      22.770463      22.770463    
     32000   611.31749     -3380.5811      68.193386     -3312.3877     -178.07081      11860.495      22.80522       22.80522       22.80522     
     32500   616.05131     -3372.8787      68.72145      -3304.1573      2432.9123      11830.02       22.785671      22.785671      22.785671    
     33000   647.00838     -3377.6193      72.174759     -3305.4445      972.35345      11798.663      22.765521      22.765521      22.765521    
     33500   638.3447      -3381.708       71.208312     -3310.4997     -578.94357      11823.21       22.781298      22.781298      22.781298    
     34000   638.40976     -3378.7342      71.21557      -3307.5187     -1488.6334      11832.96       22.787558      22.787558      22.787558    
     34500   670.52427     -3378.9122      74.797992     -3304.1142      304.66142      11875.009      22.814519      22.814519      22.814519    
     35000   646.12872     -3373.8294      72.076631     -3301.7528      1501.4751      11809.421      22.772439      22.772439      22.772439    
     35500   636.65933     -3376.3247      71.020306     -3305.3044     -1663.2491      11851.322      22.79934       22.79934       22.79934     
     36000   651.11585     -3380.21        72.632953     -3307.5771      3340.162       11818.358      22.778182      22.778182      22.778182    
     36500   623.26701     -3379.6298      69.526373     -3310.1034      909.03788      11814.088      22.775438      22.775438      22.775438    
     37000   642.5041      -3381.1341      71.672299     -3309.4618     -1711.9931      11844.921      22.795234      22.795234      22.795234    
     37500   663.99632     -3387.6972      74.069789     -3313.6274      790.63224      11792.66       22.76166       22.76166       22.76166     
     38000   628.45675     -3386.0397      70.105296     -3315.9344      2580.2427      11779.087      22.752924      22.752924      22.752924    
     38500   635.04424     -3385.8625      70.840141     -3315.0224     -1908.0646      11809.806      22.772686      22.772686      22.772686    
     39000   648.8304      -3381.5098      72.378007     -3309.1318      2853.7419      11809.484      22.772479      22.772479      22.772479    
     39500   647.12868     -3380.5121      72.188178     -3308.3239     -4348.0055      11901.665      22.831577      22.831577      22.831577    
     40000   642.25332     -3384.7097      71.644324     -3313.0654     -166.45059      11812.343      22.774316      22.774316      22.774316    
     40500   662.79542     -3384.3977      73.935826     -3310.4619      1685.6683      11799.451      22.766028      22.766028      22.766028    
     41000   662.24082     -3380.65        73.873961     -3306.776      -130.50926      11847.819      22.797093      22.797093      22.797093    
     41500   639.71182     -3384.0357      71.360817     -3312.6748      1510.2688      11789.549      22.759658      22.759658      22.759658    
     42000   663.95156     -3390.9461      74.064796     -3316.8813     -7922.6085      11862.193      22.806308      22.806308      22.806308    
     42500   632.90675     -3388.0057      70.6017       -3317.404       4289.5525      11735.812      22.725025      22.725025      22.725025    
     43000   666.21064     -3386.5748      74.3168       -3312.258       163.20533      11808.018      22.771537      22.771537      22.771537    
     43500   658.53467     -3386.5697      73.460533     -3313.1091     -1245.7731      11759.339      22.740201      22.740201      22.740201    
     44000   642.85269     -3386.4476      71.711186     -3314.7364     -2634.3829      11849.722      22.798314      22.798314      22.798314    
     44500   636.96589     -3382.6305      71.054503     -3311.576       1273.9486      11792.972      22.76186       22.76186       22.76186     
     45000   655.35707     -3382.0368      73.106068     -3308.9308     -4949.5091      11874.323      22.814079      22.814079      22.814079    
     45500   660.08603     -3388.3786      73.63359      -3314.745      -157.04923      11821.152      22.779976      22.779976      22.779976    
     46000   638.05653     -3387.5444      71.176166     -3316.3682     -3456.8245      11849.913      22.798436      22.798436      22.798436    
     46500   677.48849     -3390.6725      75.574861     -3315.0977     -705.8331       11786.32       22.75758       22.75758       22.75758     
     47000   651.43806     -3390.4309      72.668896     -3317.762       1369.6186      11829.063      22.785057      22.785057      22.785057    
     47500   665.27587     -3389.2418      74.212525     -3315.0293     -1315.2191      11841.745      22.793197      22.793197      22.793197    
     48000   634.55924     -3383.8281      70.786038     -3313.042      -2735.5072      11859.916      22.804849      22.804849      22.804849    
     48500   649.52058     -3386.8613      72.454998     -3314.4063      637.37554      11796.285      22.763992      22.763992      22.763992    
     49000   711.00908     -3388.58        79.314133     -3309.2659      1112.8224      11802.101      22.767733      22.767733      22.767733    
     49500   652.43064     -3387.4121      72.77962      -3314.6325      1375.4649      11796.869      22.764368      22.764368      22.764368    
     50000   638.83691     -3388.2485      71.263219     -3316.9853      1901.7305      11809.529      22.772508      22.772508      22.772508    
Loop time of 1062.83 on 8 procs for 50000 steps with 864 atoms

Performance: 4.065 ns/day, 5.905 hours/ns, 47.044 timesteps/s, 40.646 katom-step/s
92.6% CPU use with 1 MPI tasks x 8 OpenMP threads

MPI task timing breakdown:
Section |  min time  |  avg time  |  max time  |%varavg| %total
---------------------------------------------------------------
Pair    | 1006.1     | 1006.1     | 1006.1     |   0.0 | 94.66
Neigh   | 0.23092    | 0.23092    | 0.23092    |   0.0 |  0.02
Comm    | 0.75906    | 0.75906    | 0.75906    |   0.0 |  0.07
Output  | 0.009977   | 0.009977   | 0.009977   |   0.0 |  0.00
Modify  | 55.577     | 55.577     | 55.577     |   0.0 |  5.23
Other   |            | 0.1452     |            |       |  0.01

Nlocal:            864 ave         864 max         864 min
Histogram: 1 0 0 0 0 0 0 0 0 0
Nghost:           3436 ave        3436 max        3436 min
Histogram: 1 0 0 0 0 0 0 0 0 0
Neighs:          66752 ave       66752 max       66752 min
Histogram: 1 0 0 0 0 0 0 0 0 0
FullNghs:       133504 ave      133504 max      133504 min
Histogram: 1 0 0 0 0 0 0 0 0 0

Total # of neighbors = 133504
Ave neighs/atom = 154.51852
Neighbor list builds = 72
Dangerous builds = 0

=== FINAL RESULTS: FCC at 650 K ===
Atoms: 864 | PE/atom: -3.92034145977322 eV/atom
WARNING: Detected non-ASCII characters in input. Will try to continue by replacing with ASCII equivalents where known. (src/input.cpp:479)
Volume: 11809.5289364151 …³ | Area: 518.587108420669 ²
==========================================
FCC 650 864 -3.92034145977322 11809.5289364151 22.772507732366 22.772507732366 22.772507732366 518.587108420669
Simulation complete!
Total wall time: 0:22:43
