LAMMPS (10 Sep 2025)
  using 8 OpenMP thread(s) per MPI task
Loaded 1 plugins from C:\Users\J.Shiva\AppData\Local\LAMMPS 64-bit 10Sep2025\plugins
using multi-threaded neighbor list subroutines
Reading data file ...
  orthogonal box = (0 0 0) to (16.143248 27.960925 26.361813)
  1 by 1 by 1 MPI processor grid
  reading atoms ...
  432 atoms
  read_data CPU = 0.006 seconds
=== STAGE 1: Energy Minimization ===
Switching to 'neigh_modify every 1 delay 0 check yes' setting during minimization
No /omp style for force computation currently active
Neighbor list info ...
  update: every = 1 steps, delay = 0 steps, check = yes
  max neighbors/atom: 4000, page size: 100000
  master list distance cutoff = 8
  ghost atom cutoff = 8
  binsize = 4, bins = 5 7 7
  2 neighbor lists, perpetual/occasional/extra = 2 0 0
  (1) pair meam, perpetual
      attributes: full, newton on, omp
      pair build: full/bin/atomonly/omp
      stencil: full/bin/3d
      bin: standard
  (2) pair meam, perpetual, half/full from (1)
      attributes: half, newton on, omp
      pair build: halffull/newton/omp
      stencil: none
      bin: none
Setting up cg style minimization ...
  Unit style    : metal
  Current step  : 0
Per MPI rank memory allocation (min/avg/max) = 19.3 | 19.3 | 19.3 Mbytes
   Step          Temp          PotEng         KinEng         TotEng         Press          Volume           Lx             Ly             Lz      
         0   0             -1067.7507      0             -1067.7507     -84328.651      11899.199      16.143248      27.960925      26.361813    
        69   0             -1397.3285      0             -1397.3285     -39034.854      11899.199      16.143248      27.960925      26.361813    
Loop time of 0.487586 on 8 procs for 69 steps with 432 atoms

99.3% CPU use with 1 MPI tasks x 8 OpenMP threads

Minimization stats:
  Stopping criterion = energy tolerance
  Energy initial, next-to-last, final = 
     -1067.75073160708  -1397.32851851675  -1397.32853133438
  Force two-norm initial, final = 22.241803 12.784067
  Force max component initial, final = 3.5781394 5.8570769
  Final line search alpha, max atom move = 0.019200736 0.11246019
  Iterations, force evaluations = 69 116

MPI task timing breakdown:
Section |  min time  |  avg time  |  max time  |%varavg| %total
---------------------------------------------------------------
Pair    | 0.4428     | 0.4428     | 0.4428     |   0.0 | 90.81
Neigh   | 0.002582   | 0.002582   | 0.002582   |   0.0 |  0.53
Comm    | 0.00087    | 0.00087    | 0.00087    |   0.0 |  0.18
Output  | 0          | 0          | 0          |   0.0 |  0.00
Modify  | 0.038277   | 0.038277   | 0.038277   |   0.0 |  7.85
Other   |            | 0.003058   |            |       |  0.63

Nlocal:            432 ave         432 max         432 min
Histogram: 1 0 0 0 0 0 0 0 0 0
Nghost:           1718 ave        1718 max        1718 min
Histogram: 1 0 0 0 0 0 0 0 0 0
Neighs:          16464 ave       16464 max       16464 min
Histogram: 1 0 0 0 0 0 0 0 0 0
FullNghs:        32928 ave       32928 max       32928 min
Histogram: 1 0 0 0 0 0 0 0 0 0

Total # of neighbors = 32928
Ave neighs/atom = 76.222222
Neighbor list builds = 3
Dangerous builds = 0
Minimized PE/atom: -3.23455678549626 eV/atom
=== STAGE 2: NPT Equilibration at 650 K ===
No /omp style for force computation currently active
Setting up Verlet run ...
  Unit style    : metal
  Current step  : 0
  Time step     : 0.002
Per MPI rank memory allocation (min/avg/max) = 18.2 | 18.2 | 18.2 Mbytes
   Step          Temp          PotEng         KinEng         TotEng         Press          Volume           Lx             Ly             Lz      
         0   650           -1397.3285      36.21223      -1361.1163     -35784.306      11899.199      16.143248      27.960925      26.361813    
       500   1024.339      -1565.1745      57.067073     -1508.1075     -4172.074       7592.4764      13.897803      24.071701      22.695017    
      1000   650.57665     -1634.9325      36.244355     -1598.6882      2061.7168      6647.9147      13.29577       23.028949      21.711901    
      1500   665.06058     -1653.3654      37.051271     -1616.3141     -3757.5168      6445.2485      13.159263      22.792512      21.488986    
      2000   674.46531     -1659.741       37.57522      -1622.1658     -4118.6898      6338.2637      13.086046      22.665696      21.369423    
      2500   645.27255     -1668.3812      35.948858     -1632.4323      539.05074      6192.3032      12.984814      22.490358      21.204113    
      3000   630.83448     -1672.3419      35.144497     -1637.1974     -4992.5793      6229.1836      13.010542      22.534919      21.246126    
      3500   670.69207     -1674.1228      37.365008     -1636.7578      3036.2902      6189.1427      12.982605      22.486531      21.200505    
      4000   638.00389     -1680.47        35.543913     -1644.9261      1337.2889      6156.509       12.959747      22.446939      21.163177    
      4500   655.90632     -1683.1501      36.541277     -1646.6088      305.42871      6094.3958      12.916015      22.371195      21.091765    
      5000   626.31093     -1683.7558      34.892485     -1648.8633     -2079.1774      6099.3863      12.91954       22.3773        21.09752     
      5500   643.01677     -1689.4363      35.823186     -1653.6131     -237.94586      6067.8966      12.897268      22.338724      21.06115     
      6000   672.65436     -1691.0878      37.474329     -1653.6135      1269.7496      6058.9183      12.890904      22.3277        21.050758    
      6500   639.93512     -1695.3138      35.651504     -1659.6623      4627.8273      5980.8797      12.83532       22.231426      20.959989    
      7000   637.44858     -1692.8761      35.512976     -1657.3631      1424.3353      6054.8112      12.88799       22.322654      21.046       
      7500   645.10586     -1691.9054      35.939572     -1655.9658      3379.4304      6034.2348      12.873374      22.297339      21.022132    
      8000   671.62487     -1691.0369      37.416975     -1653.62       -4042.7073      6050.3709      12.884839      22.317196      21.040854    
      8500   633.8091      -1691.6678      35.310217     -1656.3576     -4682.5485      6057.6886      12.890032      22.32619       21.049334    
      9000   656.07013     -1695.5889      36.550403     -1659.0385      287.0713       6017.7435      12.861636      22.277008      21.002964    
      9500   630.76995     -1696.5012      35.140902     -1661.3603     -1838.2998      6040.9523      12.87815       22.30561       21.02993     
     10000   635.09167     -1695.1961      35.38167      -1659.8144     -338.8598       6010.1231      12.856205      22.2676        20.994095    
     10500   670.21766     -1696.5865      37.338578     -1659.2479     -3852.5092      5997.5036      12.847201      22.252004      20.979391    
     11000   627.10836     -1698.6258      34.936911     -1663.6889      630.99189      5961.0577      12.821124      22.206839      20.936808    
     11500   668.05099     -1700.7814      37.217871     -1663.5636     -6690.5854      6009.3244      12.855636      22.266614      20.993165    
     12000   705.05497     -1694.6428      39.279404     -1655.3634      4303.067       6011.4213      12.857131      22.269204      20.995607    
     12500   650.76193     -1697.5005      36.254678     -1661.2458      6742.24        5948.3854      12.812033      22.191091      20.921962    
     13000   640.76431     -1697.8536      35.697699     -1662.1559      1732.9108      6000.3554      12.849237      22.255531      20.982716    
     13500   651.95017     -1696.2449      36.320876     -1659.924      -1132.4752      5990.6392      12.842297      22.243512      20.971384    
     14000   690.04327     -1698.9902      38.443085     -1660.5471     -747.37589      6021.5962      12.864381      22.281761      21.007445    
     14500   657.58975     -1700.1443      36.635063     -1663.5092     -3176.4255      6028.4954      12.869292      22.290267      21.015465    
     15000   683.61557     -1700.3494      38.08499      -1662.2644      696.88017      5993.9737      12.84468       22.247638      20.975274    
     15500   645.8173      -1694.1162      35.979207     -1658.1369     -2303.916       6027.732       12.868749      22.289326      21.014578    
     16000   647.71065     -1697.7806      36.084688     -1661.6959      2708.9325      5984.5139      12.837919      22.235928      20.964234    
     16500   646.91744     -1699.9508      36.040496     -1663.9104     -741.76477      5989.2219      12.841285      22.241757      20.96973     
     17000   594.91272     -1698.0812      33.143255     -1664.9379      5104.0126      5983.6373      12.837292      22.234842      20.96321     
     17500   601.61741     -1697.9901      33.516781     -1664.4733     -4130.4309      6034.0573      12.873248      22.29712       21.021926    
     18000   662.21418     -1699.9045      36.892695     -1663.0118     -1516.5553      6007.3667      12.854239      22.264196      20.990885    
     18500   682.05351     -1698.4313      37.997967     -1660.4333     -2134.8345      6029.7266      12.870168      22.291785      21.016896    
     19000   651.21071     -1697.596       36.279679     -1661.3164     -4683.0024      6060.5019      12.892027      22.329645      21.052592    
     19500   625.61344     -1697.8806      34.853627     -1663.027      -3048.6016      6027.1488      12.868333      22.288607      21.013901    
     20000   610.26952     -1698.9679      33.9988       -1664.9691      1781.6698      5997.5274      12.847218      22.252034      20.979419    
Loop time of 168.9 on 8 procs for 20000 steps with 432 atoms

Performance: 20.462 ns/day, 1.173 hours/ns, 118.413 timesteps/s, 51.154 katom-step/s
88.2% CPU use with 1 MPI tasks x 8 OpenMP threads

MPI task timing breakdown:
Section |  min time  |  avg time  |  max time  |%varavg| %total
---------------------------------------------------------------
Pair    | 146.64     | 146.64     | 146.64     |   0.0 | 86.82
Neigh   | 0.079236   | 0.079236   | 0.079236   |   0.0 |  0.05
Comm    | 0.15787    | 0.15787    | 0.15787    |   0.0 |  0.09
Output  | 0.00289    | 0.00289    | 0.00289    |   0.0 |  0.00
Modify  | 21.986     | 21.986     | 21.986     |   0.0 | 13.02
Other   |            | 0.03276    |            |       |  0.02

Nlocal:            432 ave         432 max         432 min
Histogram: 1 0 0 0 0 0 0 0 0 0
Nghost:           2513 ave        2513 max        2513 min
Histogram: 1 0 0 0 0 0 0 0 0 0
Neighs:          32866 ave       32866 max       32866 min
Histogram: 1 0 0 0 0 0 0 0 0 0
FullNghs:        65732 ave       65732 max       65732 min
Histogram: 1 0 0 0 0 0 0 0 0 0

Total # of neighbors = 65732
Ave neighs/atom = 152.15741
Neighbor list builds = 87
Dangerous builds = 0
=== STAGE 3: NPT Production at 650 K ===
No /omp style for force computation currently active
Setting up Verlet run ...
  Unit style    : metal
  Current step  : 0
  Time step     : 0.001
Per MPI rank memory allocation (min/avg/max) = 18.76 | 18.76 | 18.76 Mbytes
   Step          Temp          PotEng         KinEng         TotEng         Press          Volume           Lx             Ly             Lz      
         0   610.26952     -1698.9679      33.9988       -1664.9691      1781.6698      5997.5274      12.847218      22.252034      20.979419    
       500   670.54108     -1699.5103      37.356596     -1662.1537      3875.1333      5975.5255      12.831488      22.22479       20.953733    
      1000   676.22561     -1700.0924      37.673288     -1662.4191     -6724.1521      6027.4554      12.868552      22.288985      21.014257    
      1500   621.46045     -1698.0792      34.622259     -1663.4569      1146.0452      5994.7933      12.845265      22.248652      20.97623     
      2000   637.96606     -1699.1037      35.541805     -1663.5619      3941.318       5938.3934      12.804855      22.178659      20.91024     
      2500   661.06959     -1698.1165      36.828929     -1661.2876      968.60522      5993.216       12.844138      22.2467        20.97439     
      3000   643.51695     -1699.9905      35.851052     -1664.1394      1728.3808      5986.0712      12.839032      22.237856      20.966052    
      3500   614.75815     -1699.6442      34.248867     -1665.3953      1850.6301      5966.5711      12.825076      22.213683      20.943261    
      4000   649.23369     -1701.8317      36.169537     -1665.6621      1994.2331      5954.0572      12.816103      22.198142      20.928609    
      4500   586.13522     -1698.7167      32.654251     -1666.0625      1084.9679      5968.6078      12.826535      22.21621       20.945644    
      5000   661.84873     -1699.656       36.872336     -1662.7837     -7263.211       6007.5457      12.854367      22.264417      20.991093    
      5500   664.04888     -1699.0966      36.994908     -1662.1017      4811.7544      5987.6093      12.840132      22.239761      20.967848    
      6000   675.3408      -1699.1984      37.623994     -1661.5744      3381.3038      5995.3475      12.845661      22.249337      20.976877    
      6500   617.55193     -1701.1186      34.404511     -1666.714      -6716.4971      5982.211       12.836272      22.233075      20.961544    
      7000   693.87104     -1699.9078      38.656335     -1661.2515     -3791.0371      5990.3247      12.842073      22.243122      20.971017    
      7500   627.60353     -1700.6325      34.964497     -1665.668      -639.63057      5968.9733      12.826797      22.216664      20.946071    
      8000   668.50469     -1699.847       37.243146     -1662.6039      575.32189      5934.3501      12.801948      22.173624      20.905493    
      8500   641.63694     -1697.6917      35.746314     -1661.9454      1255.0657      5978.3281      12.833494      22.228264      20.957008    
      9000   633.99662     -1699.0844      35.320663     -1663.7637     -6080.65        5987.6239      12.840142      22.239779      20.967865    
      9500   652.07077     -1704.6667      36.327595     -1668.3391     -864.56317      5925.1572      12.795334      22.162169      20.894693    
     10000   629.74765     -1699.6179      35.083948     -1664.534       320.32946      5996.4428      12.846443      22.250692      20.978154    
     10500   668.26148     -1702.9794      37.229597     -1665.7498      4826.8362      5933.0673      12.801025      22.172026      20.903987    
     11000   672.70994     -1698.3802      37.477426     -1660.9028     -3008.8786      5978.4835      12.833605      22.228457      20.95719     
     11500   656.52581     -1700.728       36.57579      -1664.1522     -5511.8762      5981.7101      12.835914      22.232455      20.960959    
     12000   588.99219     -1702.3784      32.813416     -1669.565      -2193.0829      5952.9698      12.815323      22.196791      20.927335    
     12500   659.91641     -1699.8165      36.764684     -1663.0518      3950.2197      5933.1553      12.801089      22.172136      20.90409     
     13000   618.50347     -1700.5001      34.457523     -1666.0426     -3641.2723      5973.3408      12.829924      22.222081      20.951179    
     13500   646.009       -1698.435       35.989886     -1662.4451      1058.8523      5955.497       12.817136      22.199931      20.930296    
     14000   706.47569     -1699.8767      39.358554     -1660.5181      7981.2477      5930.9827      12.799526      22.169429      20.901539    
     14500   644.93123     -1700.0861      35.929843     -1664.1563     -5795.4049      6013.7035      12.858758      22.272021      20.998263    
     15000   624.29793     -1701.5098      34.780338     -1666.7295      4101.4997      5932.3009      12.800474      22.171072      20.903087    
     15500   642.20413     -1699.9745      35.777913     -1664.1966      4136.271       5955.4995      12.817138      22.199934      20.930299    
     16000   688.51162     -1701.6016      38.357755     -1663.2439      2418.1009      5930.663       12.799296      22.169031      20.901163    
     16500   654.34686     -1698.8803      36.454398     -1662.4259      1347.2503      5963.3054      12.822736      22.209629      20.93944     
     17000   623.02251     -1701.6605      34.709283     -1666.9512     -1969.5982      5949.1933      12.812613      22.192096      20.922909    
     17500   640.19502     -1700.3873      35.665983     -1664.7213      2614.056       5914.3732      12.787567      22.148715      20.882009    
     18000   704.65474     -1700.9023      39.257106     -1661.6452      1224.1602      5962.7813      12.82236       22.208979      20.938826    
     18500   683.36273     -1702.3923      38.070905     -1664.3214      1465.1998      5961.1022      12.821156      22.206894      20.93686     
     19000   647.24482     -1698.2563      36.058736     -1662.1976     -3670.675       5967.9484      12.826063      22.215392      20.944873    
     19500   639.75659     -1699.7475      35.641558     -1664.1059      1621.8567      5928.2909      12.797589      22.166075      20.898376    
     20000   620.36491     -1701.2675      34.561226     -1666.7062     -1416.6136      5944.5343      12.809267      22.186301      20.917446    
     20500   691.71204     -1704.8853      38.536054     -1666.3492      2233.0234      5923.1343      12.793878      22.159646      20.892315    
     21000   660.43983     -1702.6867      36.793844     -1665.8928      318.70803      5947.9094      12.811691      22.190499      20.921404    
     21500   665.1343      -1700.5519      37.055378     -1663.4965     -2921.0531      5972.8319      12.82956       22.22145       20.950584    
     22000   662.88954     -1702.1453      36.93032      -1665.2149      4346.8473      5933.3115      12.801201      22.172331      20.904274    
     22500   602.44187     -1701.1988      33.562713     -1667.6361      1295.3342      5947.0387      12.811066      22.189417      20.920383    
     23000   644.84079     -1702.0298      35.924804     -1666.105       5798.3791      5890.4203      12.77028       22.118774      20.85378     
     23500   662.11251     -1700.0005      36.887031     -1663.1135     -126.2092       5964.6438      12.823695      22.211291      20.941006    
     24000   626.69637     -1699.9037      34.913958     -1664.9897     -454.26092      5949.7056      12.81298       22.192733      20.923509    
     24500   605.15774     -1703.246       33.714017     -1669.532      -6580.1687      5980.9494      12.83537       22.231512      20.960071    
     25000   624.57966     -1701.5833      34.796034     -1666.7873      7412.0579      5896.8515      12.774926      22.126821      20.861367    
     25500   633.24469     -1699.5451      35.278772     -1664.2663     -5704.6091      5986.4582      12.839309      22.238336      20.966504    
     26000   652.21938     -1702.5686      36.335874     -1666.2327     -8260.4897      5966.0587      12.824709      22.213047      20.942662    
     26500   586.69824     -1702.9501      32.685618     -1670.2645     -1233.6601      5928.95        12.798064      22.166896      20.89915     
     27000   646.82631     -1705.459       36.03542      -1669.4236      4341.7215      5887.5384      12.768197      22.115167      20.850379    
     27500   681.61806     -1704.5596      37.973707     -1666.5859     -5603.4559      5972.5313      12.829345      22.221077      20.950232    
     28000   617.98034     -1702.7993      34.428379     -1668.3709     -6897.3642      5990.5971      12.842267      22.243459      20.971335    
     28500   645.65507     -1704.2528      35.970169     -1668.2826     -3172.0561      5961.9196      12.821742      22.207909      20.937817    
     29000   673.30995     -1706.0891      37.510853     -1668.5783     -3639.1382      5949.1178      12.812558      22.192002      20.92282     
     29500   614.01187     -1706.4099      34.207291     -1672.2026     -3423.1177      5947.2081      12.811187      22.189627      20.920581    
     30000   668.51621     -1707.6524      37.243789     -1670.4086     -3788.1678      5935.5104      12.802782      22.175069      20.906856    
     30500   667.5905      -1705.5958      37.192216     -1668.4036     -1165.1829      5962.6529      12.822268      22.208819      20.938676    
     31000   659.41104     -1703.9228      36.736529     -1667.1863      1850.8905      5940.8121      12.806593      22.18167       20.913079    
     31500   615.70362     -1706.4921      34.30154      -1672.1906      7846.4508      5868.518       12.754433      22.091326      20.827902    
     32000   639.7511      -1705.674       35.641252     -1670.0327     -2230.1262      5929.0381      12.798127      22.167006      20.899254    
     32500   643.63876     -1705.0949      35.857838     -1669.2371     -1166.2757      5952.7678      12.815178      22.19654       20.927098    
     33000   635.86309     -1709.4086      35.424646     -1673.9839     -5670.4238      5930.95        12.799502      22.169389      20.9015      
     33500   640.23742     -1705.5155      35.668346     -1669.8471      599.32717      5945.861       12.81022       22.187952      20.919002    
     34000   678.06376     -1703.7621      37.775693     -1665.9864     -10015.639      6009.5547      12.8558        22.266898      20.993433    
     34500   652.77803     -1705.0123      36.366997     -1668.6453     -1556.8966      5935.0871      12.802478      22.174542      20.906359    
     35000   634.12084     -1705.5765      35.327584     -1670.2489     -2110.8639      5906.0448      12.781562      22.138314      20.872203    
     35500   660.5985      -1707.5655      36.802684     -1670.7628      1082.3909      5913.6382      12.787037      22.147798      20.881144    
     36000   600.19409     -1704.8114      33.437486     -1671.3739      1557.7734      5946.4564      12.810648      22.188692      20.9197      
     36500   607.81351     -1704.2996      33.861973     -1670.4376      1571.844       5938.0473      12.804606      22.178228      20.909834    
     37000   683.07356     -1705.3778      38.054795     -1667.323      -480.38959      5933.2607      12.801165      22.172267      20.904214    
     37500   628.69831     -1703.2868      35.025488     -1668.2613     -2133.184       5933.7228      12.801497      22.172843      20.904757    
     38000   628.40863     -1704.5746      35.00935      -1669.5652      4979.8885      5895.6908      12.774088      22.125369      20.859998    
     38500   659.00005     -1703.6758      36.713633     -1666.9622      2630.9412      5947.8956      12.811681      22.190482      20.921387    
     39000   586.91355     -1706.65        32.697613     -1673.9524     -429.17627      5945.3222      12.809833      22.187282      20.91837     
     39500   623.47962     -1705.0244      34.73475      -1670.2896     -5152.3151      5963.3991      12.822803      22.209746      20.939549    
     40000   673.61907     -1704.5211      37.528075     -1666.993       5600.8914      5911.3638      12.785397      22.144958      20.878467    
     40500   637.87416     -1703.4604      35.536686     -1667.9237     -2235.6587      5946.5908      12.810744      22.18886       20.919857    
     41000   655.65029     -1706.0876      36.527014     -1669.5606      2887.5141      5916.4825      12.789087      22.151348      20.884491    
     41500   608.68627     -1705.9203      33.910596     -1672.0098      5547.026       5876.0006      12.759851      22.100711      20.83675     
     42000   613.15836     -1706.257       34.159741     -1672.0972     -1735.9828      5906.0635      12.781575      22.138337      20.872225    
     42500   638.74016     -1706.524       35.584931     -1670.9391      6616.1878      5894.2511      12.773048      22.123568      20.8583      
     43000   711.65614     -1703.493       39.647163     -1663.8459     -446.42344      5948.3456      12.812004      22.191042      20.921915    
     43500   605.24656     -1705.47        33.718965     -1671.7511      1467.6911      5943.8438      12.808771      22.185442      20.916636    
     44000   681.44424     -1708.3261      37.964024     -1670.3621      6944.4737      5907.6069      12.782688      22.140266      20.874043    
     44500   699.63895     -1707.1083      38.977671     -1668.1306     -1535.6922      5929.3672      12.798364      22.167416      20.899641    
     45000   634.1471      -1707.0676      35.329047     -1671.7386     -4248.8475      5955.7615      12.817326      22.20026       20.930606    
     45500   613.0823      -1707.5649      34.155503     -1673.4094     -5295.8354      5951.1606      12.814025      22.194542      20.925215    
     46000   666.09783     -1706.875       37.109058     -1669.766      -4511.0416      5952.1827      12.814758      22.195812      20.926413    
     46500   678.17493     -1708.5226      37.781887     -1670.7407     -2304.6318      5937.4448      12.804173      22.177478      20.909127    
     47000   657.66513     -1710.0455      36.639263     -1673.4063     -1599.2513      5916.4783      12.789084      22.151343      20.884486    
     47500   661.40614     -1708.0195      36.847679     -1671.1718     -2144.4179      5962.1388      12.821899      22.208181      20.938074    
     48000   677.34756     -1707.3829      37.735793     -1669.6471     -602.49467      5932.0366      12.800284      22.170742      20.902776    
     48500   695.19223     -1708.4115      38.729939     -1669.6816      675.26306      5933.5466      12.80137       22.172623      20.90455     
     49000   637.39755     -1708.8025      35.510133     -1673.2924     -1901.14        5935.7899      12.802983      22.175417      20.907184    
     49500   624.72848     -1706.2033      34.804325     -1671.399       1463.8401      5926.7751      12.796499      22.164186      20.896595    
     50000   647.53435     -1710.0402      36.074866     -1673.9653     -1355.3296      5949.0773      12.812529      22.191952      20.922773    
Loop time of 444.072 on 8 procs for 50000 steps with 432 atoms

Performance: 9.728 ns/day, 2.467 hours/ns, 112.594 timesteps/s, 48.641 katom-step/s
88.4% CPU use with 1 MPI tasks x 8 OpenMP threads

MPI task timing breakdown:
Section |  min time  |  avg time  |  max time  |%varavg| %total
---------------------------------------------------------------
Pair    | 385.63     | 385.63     | 385.63     |   0.0 | 86.84
Neigh   | 0.05427    | 0.05427    | 0.05427    |   0.0 |  0.01
Comm    | 0.39959    | 0.39959    | 0.39959    |   0.0 |  0.09
Output  | 0.006899   | 0.006899   | 0.006899   |   0.0 |  0.00
Modify  | 57.916     | 57.916     | 57.916     |   0.0 | 13.04
Other   |            | 0.06874    |            |       |  0.02

Nlocal:            432 ave         432 max         432 min
Histogram: 1 0 0 0 0 0 0 0 0 0
Nghost:           2567 ave        2567 max        2567 min
Histogram: 1 0 0 0 0 0 0 0 0 0
Neighs:          33209 ave       33209 max       33209 min
Histogram: 1 0 0 0 0 0 0 0 0 0
FullNghs:        66418 ave       66418 max       66418 min
Histogram: 1 0 0 0 0 0 0 0 0 0

Total # of neighbors = 66418
Ave neighs/atom = 153.74537
Neighbor list builds = 55
Dangerous builds = 0

=== FINAL RESULTS: HCP at 650 K ===
Atoms: 432 | PE/atom: -3.9524038214916 eV/atom
WARNING: Detected non-ASCII characters in input. Will try to continue by replacing with ASCII equivalents where known. (src/input.cpp:479)
Volume: 5949.0772905486 …³ | Area: 284.335032999352 ²
==========================================
HCP 650 432 -3.9524038214916 5949.0772905486 12.8125293294999 22.1919517752589 20.9227727860118 284.335032999352
Simulation complete!
Total wall time: 0:10:13
