LAMMPS (10 Sep 2025)
  using 8 OpenMP thread(s) per MPI task
Loaded 1 plugins from C:\Users\harsh\Downloads\LAMMPS 64-bit 10Sep2025\plugins
using multi-threaded neighbor list subroutines
Reading data file ...
  orthogonal box = (0 0 0) to (22.71 22.71 22.71)
  1 by 1 by 1 MPI processor grid
  reading atoms ...
  864 atoms
  read_data CPU = 0.005 seconds
=== STAGE 1: Energy Minimization ===
Switching to 'neigh_modify every 1 delay 0 check yes' setting during minimization
No /omp style for force computation currently active
Neighbor list info ...
  update: every = 1 steps, delay = 0 steps, check = yes
  max neighbors/atom: 4000, page size: 100000
  master list distance cutoff = 8
  ghost atom cutoff = 8
  binsize = 4, bins = 6 6 6
  2 neighbor lists, perpetual/occasional/extra = 2 0 0
  (1) pair meam, perpetual
      attributes: full, newton on, omp
      pair build: full/bin/atomonly/omp
      stencil: full/bin/3d
      bin: standard
  (2) pair meam, perpetual, half/full from (1)
      attributes: half, newton on, omp
      pair build: halffull/newton/omp
      stencil: none
      bin: none
Setting up cg style minimization ...
  Unit style    : metal
  Current step  : 0
Per MPI rank memory allocation (min/avg/max) = 20.91 | 20.91 | 20.91 Mbytes
   Step          Temp          PotEng         KinEng         TotEng         Press          Volume           Lx             Ly             Lz      
         0   0             -2881.2972      0             -2881.2972      93296.314      11712.549      22.71          22.71          22.71        
       122   0             -2946.9664      0             -2946.9664      100663.72      11712.549      22.71          22.71          22.71        
Loop time of 4.3686 on 8 procs for 122 steps with 864 atoms

98.0% CPU use with 1 MPI tasks x 8 OpenMP threads

Minimization stats:
  Stopping criterion = energy tolerance
  Energy initial, next-to-last, final = 
      -2881.2971982817  -2946.96578403662  -2946.96635295071
  Force two-norm initial, final = 13.638362 1.3044005
  Force max component initial, final = 1.1743386 0.68922593
  Final line search alpha, max atom move = 0.28088683 0.19359448
  Iterations, force evaluations = 122 243

MPI task timing breakdown:
Section |  min time  |  avg time  |  max time  |%varavg| %total
---------------------------------------------------------------
Pair    | 4.3098     | 4.3098     | 4.3098     |   0.0 | 98.65
Neigh   | 0          | 0          | 0          |   0.0 |  0.00
Comm    | 0.003008   | 0.003008   | 0.003008   |   0.0 |  0.07
Output  | 0          | 0          | 0          |   0.0 |  0.00
Modify  | 0.05261    | 0.05261    | 0.05261    |   0.0 |  1.20
Other   |            | 0.003176   |            |       |  0.07

Nlocal:            864 ave         864 max         864 min
Histogram: 1 0 0 0 0 0 0 0 0 0
Nghost:           3767 ave        3767 max        3767 min
Histogram: 1 0 0 0 0 0 0 0 0 0
Neighs:          60480 ave       60480 max       60480 min
Histogram: 1 0 0 0 0 0 0 0 0 0
FullNghs:       120960 ave      120960 max      120960 min
Histogram: 1 0 0 0 0 0 0 0 0 0

Total # of neighbors = 120960
Ave neighs/atom = 140
Neighbor list builds = 0
Dangerous builds = 0
Minimized PE/atom: -3.41084068628555 eV/atom
=== STAGE 2: NPT Equilibration at 650 K ===
No /omp style for force computation currently active
Setting up Verlet run ...
  Unit style    : metal
  Current step  : 0
  Time step     : 0.002
Per MPI rank memory allocation (min/avg/max) = 19.96 | 19.96 | 19.96 Mbytes
   Step          Temp          PotEng         KinEng         TotEng         Press          Volume           Lx             Ly             Lz      
         0   650           -2946.9664      72.508478     -2874.4579      107276.08      11712.549      22.71          22.71          22.71        
       500   590.53544     -2940.2967      65.875117     -2874.4215      2001.7227      14473.044      24.369874      24.369874      24.369874    
      1000   659.02652     -2945.478       73.5154       -2871.9626      2013.9957      14823.041      24.564755      24.564755      24.564755    
      1500   654.7068      -2959.7346      73.033529     -2886.7011     -253.30084      14871.455      24.59147       24.59147       24.59147     
      2000   625.99539     -2974.6578      69.830728     -2904.8271     -219.2442       14702.555      24.498017      24.498017      24.498017    
      2500   689.01971     -2999.8123      76.861186     -2922.9511     -904.38996      14667.453      24.478506      24.478506      24.478506    
      3000   640.42995     -3013.3142      71.440925     -2941.8733      2058.3095      14605.399      24.443936      24.443936      24.443936    
      3500   649.20791     -3034.613       72.420119     -2962.1929     -1099.193       14549.945      24.412961      24.412961      24.412961    
      4000   631.84963     -3041.6655      70.483778     -2971.1818     -1813.1214      14529.631      24.401594      24.401594      24.401594    
      4500   642.95376     -3051.2337      71.72246      -2979.5113      1180.6088      14508.743      24.389895      24.389895      24.389895    
      5000   637.45714     -3063.0264      71.109303     -2991.9171      2120.5624      14391.797      24.324187      24.324187      24.324187    
      5500   651.01667     -3071.1352      72.621889     -2998.5133     -1054.7945      14242.591      24.239835      24.239835      24.239835    
      6000   663.63302     -3080.0627      74.029262     -3006.0334     -816.06134      14268.434      24.254488      24.254488      24.254488    
      6500   633.98366     -3086.1966      70.721832     -3015.4747      2512.5053      14211.148      24.221985      24.221985      24.221985    
      7000   685.30398     -3098.2225      76.446691     -3021.7758      2157.2877      14031.606      24.119546      24.119546      24.119546    
      7500   640.94221     -3106.0446      71.498068     -3034.5465     -470.98793      14027.357      24.117111      24.117111      24.117111    
      8000   650.63536     -3105.3583      72.579353     -3032.7789      2694.6181      13916.709      24.053531      24.053531      24.053531    
      8500   643.94093     -3116.3214      71.83258      -3044.4888     -996.51101      13930.359      24.061393      24.061393      24.061393    
      9000   632.29786     -3113.8256      70.533778     -3043.2918      33.928517      14055.921      24.13347       24.13347       24.13347     
      9500   632.23066     -3113.9827      70.526282     -3043.4564     -455.5359       14056.668      24.133897      24.133897      24.133897    
     10000   692.78001     -3122.7675      77.280653     -3045.4868      1228.4148      13935.561      24.064388      24.064388      24.064388    
     10500   674.73276     -3122.9691      75.267455     -3047.7016     -1151.3147      13897.728      24.042591      24.042591      24.042591    
     11000   630.05943     -3128.9219      70.284078     -3058.6378     -655.14617      13927.361      24.059667      24.059667      24.059667    
     11500   664.7229      -3130.1627      74.15084      -3056.0119     -1328.0837      13938.443      24.066047      24.066047      24.066047    
     12000   658.26152     -3131.8717      73.430064     -3058.4417      3087.8032      13820.635      23.998053      23.998053      23.998053    
     12500   656.56333     -3134.6601      73.240628     -3061.4194     -824.71892      13826.02       24.001169      24.001169      24.001169    
     13000   655.99867     -3136.6237      73.177639     -3063.446       1503.8271      13698.318      23.927046      23.927046      23.927046    
     13500   619.27431     -3133.0842      69.080981     -3064.0032      250.35857      13751.686      23.958078      23.958078      23.958078    
     14000   646.19511     -3138.1777      72.084038     -3066.0937     -288.38456      13784.864      23.97733       23.97733       23.97733     
     14500   674.41044     -3135.2564      75.231499     -3060.0249     -1027.163       13938.54       24.066103      24.066103      24.066103    
     15000   624.85038     -3141.4167      69.703        -3071.7137     -201.69251      13809.961      23.991873      23.991873      23.991873    
     15500   619.68053     -3138.0768      69.126295     -3068.9505     -1994.4941      13885.585      24.035587      24.035587      24.035587    
     16000   647.70448     -3139.2134      72.25241      -3066.961      -320.07026      13842.177      24.010515      24.010515      24.010515    
     16500   646.53825     -3139.3929      72.122314     -3067.2706      3047.6334      13874.908      24.029424      24.029424      24.029424    
     17000   645.46611     -3141.8273      72.002717     -3069.8246     -317.50459      13848.672      24.014269      24.014269      24.014269    
     17500   682.86762     -3140.8791      76.174911     -3064.7042     -1712.7186      13922.944      24.057123      24.057123      24.057123    
     18000   660.81468     -3142.7511      73.714872     -3069.0362     -1081.4887      13797.607      23.984717      23.984717      23.984717    
     18500   624.20881     -3143.5064      69.631432     -3073.8749     -3003.8587      13718.472      23.938774      23.938774      23.938774    
     19000   637.2186      -3145.0027      71.082694     -3073.92       -1327.1371      13847.28       24.013464      24.013464      24.013464    
     19500   651.13579     -3149.8789      72.635178     -3077.2437      3935.1289      13717.773      23.938368      23.938368      23.938368    
     20000   622.46135     -3144.7309      69.436501     -3075.2944      25.584912      13674.028      23.912895      23.912895      23.912895    
Loop time of 257.894 on 8 procs for 20000 steps with 864 atoms

Performance: 13.401 ns/day, 1.791 hours/ns, 77.551 timesteps/s, 67.004 katom-step/s
94.8% CPU use with 1 MPI tasks x 8 OpenMP threads

MPI task timing breakdown:
Section |  min time  |  avg time  |  max time  |%varavg| %total
---------------------------------------------------------------
Pair    | 240.47     | 240.47     | 240.47     |   0.0 | 93.25
Neigh   | 0.33389    | 0.33389    | 0.33389    |   0.0 |  0.13
Comm    | 0.19072    | 0.19072    | 0.19072    |   0.0 |  0.07
Output  | 0.002272   | 0.002272   | 0.002272   |   0.0 |  0.00
Modify  | 16.835     | 16.835     | 16.835     |   0.0 |  6.53
Other   |            | 0.05862    |            |       |  0.02

Nlocal:            864 ave         864 max         864 min
Histogram: 1 0 0 0 0 0 0 0 0 0
Nghost:           3184 ave        3184 max        3184 min
Histogram: 1 0 0 0 0 0 0 0 0 0
Neighs:          58559 ave       58559 max       58559 min
Histogram: 1 0 0 0 0 0 0 0 0 0
FullNghs:       117118 ave      117118 max      117118 min
Histogram: 1 0 0 0 0 0 0 0 0 0

Total # of neighbors = 117118
Ave neighs/atom = 135.55324
Neighbor list builds = 218
Dangerous builds = 0
=== STAGE 3: NPT Production at 650 K ===
No /omp style for force computation currently active
Setting up Verlet run ...
  Unit style    : metal
  Current step  : 0
  Time step     : 0.001
Per MPI rank memory allocation (min/avg/max) = 19.96 | 19.96 | 19.96 Mbytes
   Step          Temp          PotEng         KinEng         TotEng         Press          Volume           Lx             Ly             Lz      
         0   622.46135     -3144.7309      69.436501     -3075.2944      25.584912      13674.028      23.912895      23.912895      23.912895    
       500   654.25134     -3145.6046      72.982722     -3072.6219     -3835.5115      13784.983      23.977399      23.977399      23.977399    
      1000   659.48764     -3149.1866      73.566839     -3075.6197     -356.13722      13649.901      23.898822      23.898822      23.898822    
      1500   663.86725     -3152.4315      74.055391     -3078.3761      2292.1028      13611.813      23.876573      23.876573      23.876573    
      2000   673.51561     -3151.7957      75.13168      -3076.6641      4436.3224      13572.056      23.853304      23.853304      23.853304    
      2500   651.11719     -3149.2308      72.633103     -3076.5977     -539.97619      13579.028      23.857388      23.857388      23.857388    
      3000   660.35116     -3149.6895      73.663166     -3076.0263      8.6006391      13679.477      23.916071      23.916071      23.916071    
      3500   637.50324     -3150.5011      71.114446     -3079.3867     -2210.6523      13696.996      23.926276      23.926276      23.926276    
      4000   659.65243     -3152.2391      73.585222     -3078.6539      770.09613      13666.39       23.908442      23.908442      23.908442    
      4500   636.81555     -3155.1593      71.037733     -3084.1216      2647.3528      13500.863      23.811523      23.811523      23.811523    
      5000   641.05774     -3152.6494      71.510956     -3081.1385      440.3383       13632.058      23.888404      23.888404      23.888404    
      5500   640.04363     -3150.2574      71.397831     -3078.8596     -3298.3992      13809.29       23.991484      23.991484      23.991484    
      6000   662.64727     -3155.8553      73.919301     -3081.936       444.10137      13660.632      23.905083      23.905083      23.905083    
      6500   630.69935     -3148.7516      70.355462     -3078.3962     -1118.3458      13785.895      23.977928      23.977928      23.977928    
      7000   621.18988     -3153.7012      69.294666     -3084.4066     -242.18888      13678.098      23.915267      23.915267      23.915267    
      7500   670.64259     -3151.8206      74.81119      -3077.0094      3391.7315      13606.783      23.873631      23.873631      23.873631    
      8000   642.06291     -3156.7638      71.623084     -3085.1407     -542.84032      13643.012      23.894801      23.894801      23.894801    
      8500   662.95244     -3155.8774      73.953342     -3081.9241     -907.85623      13652.503      23.900341      23.900341      23.900341    
      9000   654.21301     -3154.0113      72.978445     -3081.0329     -2298.5815      13706.132      23.931595      23.931595      23.931595    
      9500   637.76963     -3158.7176      71.144162     -3087.5734     -965.62621      13663.69       23.906867      23.906867      23.906867    
     10000   630.95374     -3152.1908      70.383839     -3081.807       1390.2095      13716.962      23.937896      23.937896      23.937896    
     10500   657.61954     -3152.5574      73.35845      -3079.199      -3206.7748      13737.885      23.950061      23.950061      23.950061    
     11000   665.19376     -3153.027       74.203365     -3078.8237      2930.6166      13631.031      23.887804      23.887804      23.887804    
     11500   649.39151     -3155.009       72.4406       -3082.5684      2544.7848      13698.046      23.926887      23.926887      23.926887    
     12000   670.68464     -3153.6231      74.815881     -3078.8072     -2827.7872      13800.182      23.986209      23.986209      23.986209    
     12500   682.00561     -3156.9638      76.078752     -3080.885      -1931.7092      13690.105      23.922263      23.922263      23.922263    
     13000   637.03569     -3157.6825      71.06229      -3086.6202      488.85984      13595.08       23.866785      23.866785      23.866785    
     13500   633.59042     -3158.9967      70.677965     -3088.3187      1101.0494      13595.001      23.866739      23.866739      23.866739    
     14000   643.44832     -3161.2527      71.777629     -3089.4751      926.89591      13636.633      23.891077      23.891077      23.891077    
     14500   617.07254     -3160.6022      68.835371     -3091.7668      1737.8942      13588.019      23.862652      23.862652      23.862652    
     15000   654.68696     -3164.5135      73.031315     -3091.4822     -1544.0121      13571.204      23.852805      23.852805      23.852805    
     15500   687.32502     -3157.8936      76.67214      -3081.2215      2107.7556      13541.806      23.835569      23.835569      23.835569    
     16000   643.31417     -3157.709       71.762664     -3085.9463      1558.611       13595.17       23.866838      23.866838      23.866838    
     16500   674.10923     -3160.6405      75.1979       -3085.4426      1410.3691      13556.549      23.844216      23.844216      23.844216    
     17000   691.22671     -3158.666       77.10738      -3081.5587      1746.5232      13650.825      23.899362      23.899362      23.899362    
     17500   644.32299     -3157.6678      71.875199     -3085.7926     -449.6281       13717.433      23.93817       23.93817       23.93817     
     18000   677.0617      -3160.8106      75.527252     -3085.2834      311.4513       13616.76       23.879465      23.879465      23.879465    
     18500   650.2828      -3158.158       72.540025     -3085.618      -335.40826      13623.06       23.883148      23.883148      23.883148    
     19000   646.2713      -3159.5579      72.092536     -3087.4654      2740.7404      13547.485      23.838901      23.838901      23.838901    
     19500   654.84124     -3159.0581      73.048526     -3086.0096      2359.6921      13576.705      23.856027      23.856027      23.856027    
     20000   632.95198     -3157.205       70.606746     -3086.5983      2121.3891      13657.888      23.903483      23.903483      23.903483    
     20500   613.90252     -3159.6781      68.48175      -3091.1963     -1062.9593      13712.193      23.935122      23.935122      23.935122    
     21000   628.88572     -3162.5031      70.153149     -3092.3499     -2998.8363      13646.182      23.896651      23.896651      23.896651    
     21500   649.81416     -3161.8218      72.487748     -3089.334       2324.4151      13517.511      23.821306      23.821306      23.821306    
     22000   655.25512     -3162.7683      73.094695     -3089.6736      3627.2793      13564.52       23.848889      23.848889      23.848889    
     22500   654.23685     -3158.594       72.981106     -3085.6129     -2620.0502      13639.96       23.893019      23.893019      23.893019    
     23000   619.54262     -3163.2444      69.110911     -3094.1335     -36.85099       13566.773      23.850209      23.850209      23.850209    
     23500   632.55356     -3161.127       70.562302     -3090.5647     -3480.7797      13602.041      23.870858      23.870858      23.870858    
     24000   643.81671     -3159.8958      71.818723     -3088.0771     -974.41461      13566.125      23.849829      23.849829      23.849829    
     24500   647.10522     -3163.382       72.185561     -3091.1964      1583.4587      13534.453      23.831255      23.831255      23.831255    
     25000   674.44802     -3161.7701      75.235692     -3086.5344     -1552.5276      13671.7        23.911538      23.911538      23.911538    
     25500   651.74019     -3163.3956      72.7026       -3090.693       692.81755      13566.264      23.84991       23.84991       23.84991     
     26000   668.15673     -3165.741       74.533889     -3091.2072      6018.5952      13436.533      23.773643      23.773643      23.773643    
     26500   626.10277     -3166.014       69.842706     -3096.1713      2579.224       13517.19       23.821118      23.821118      23.821118    
     27000   669.1253      -3164.1109      74.641935     -3089.469       815.62427      13614.124      23.877924      23.877924      23.877924    
     27500   660.00133     -3159.6161      73.624142     -3085.9919      1915.5382      13519.584      23.822524      23.822524      23.822524    
     28000   666.28006     -3163.7399      74.324544     -3089.4154     -1365.3347      13602.344      23.871035      23.871035      23.871035    
     28500   651.88067     -3163.4548      72.71827      -3090.7365      1570.071       13525.847      23.826202      23.826202      23.826202    
     29000   639.06237     -3163.7835      71.288369     -3092.4951      1644.1773      13589.509      23.863524      23.863524      23.863524    
     29500   635.65253     -3163.2279      70.907996     -3092.3199      1536.9791      13560.363      23.846452      23.846452      23.846452    
     30000   643.1848      -3164.7473      71.748233     -3092.9991     -1636.0267      13619.631      23.881143      23.881143      23.881143    
     30500   646.48812     -3162.4743      72.116723     -3090.3576     -563.59116      13587.241      23.862197      23.862197      23.862197    
     31000   659.47238     -3164.2987      73.565137     -3090.7336     -1481.5414      13577.366      23.856415      23.856415      23.856415    
     31500   669.83284     -3161.9088      74.720862     -3087.1879      2141.153       13654.647      23.901592      23.901592      23.901592    
     32000   647.57746     -3165.7585      72.23824      -3093.5202      298.28556      13577.363      23.856413      23.856413      23.856413    
     32500   655.18095     -3163.8922      73.086421     -3090.8058     -2655.7706      13659.806      23.904602      23.904602      23.904602    
     33000   615.66986     -3169.0605      68.678899     -3100.3816     -925.15535      13583.3        23.85989       23.85989       23.85989     
     33500   652.08405     -3165.6768      72.740957     -3092.9359      1992.3864      13493.432      23.807153      23.807153      23.807153    
     34000   680.62341     -3165.0877      75.924566     -3089.1631     -65.374344      13567.753      23.850783      23.850783      23.850783    
     34500   674.21753     -3166.8011      75.20998      -3091.5911     -1550.1662      13604.693      23.872409      23.872409      23.872409    
     35000   615.7774      -3158.8231      68.690896     -3090.1322     -445.54076      13633.487      23.889239      23.889239      23.889239    
     35500   671.89618     -3164.3408      74.95103      -3089.3897      2200.6304      13584.857      23.860801      23.860801      23.860801    
     36000   652.33047     -3164.7908      72.768445     -3092.0223      3999.9447      13532.45       23.830079      23.830079      23.830079    
     36500   654.28999     -3166.1457      72.987033     -3093.1587     -1937.3977      13620.184      23.881467      23.881467      23.881467    
     37000   682.69597     -3159.5415      76.155763     -3083.3857     -2755.6107      13686.84       23.920361      23.920361      23.920361    
     37500   681.49677     -3162.2387      76.021991     -3086.2167     -496.36366      13594.474      23.86643       23.86643       23.86643     
     38000   666.54871     -3161.7024      74.354512     -3087.3479     -1732.8252      13634.87       23.890047      23.890047      23.890047    
     38500   638.50566     -3167.127       71.226267     -3095.9008      43.534514      13547.329      23.838809      23.838809      23.838809    
     39000   637.08259     -3163.4149      71.067522     -3092.3474     -161.65233      13604.587      23.872347      23.872347      23.872347    
     39500   652.15861     -3164.4791      72.749275     -3091.7298      2772.1742      13537.866      23.833257      23.833257      23.833257    
     40000   669.26131     -3163.3178      74.657107     -3088.6607      2006.3482      13598.382      23.868717      23.868717      23.868717    
     40500   648.87056     -3161.8993      72.382487     -3089.5168      428.08313      13612.948      23.877237      23.877237      23.877237    
     41000   649.88416     -3161.8242      72.495556     -3089.3287      1064.2809      13550.789      23.840838      23.840838      23.840838    
     41500   648.46098     -3166.1441      72.336798     -3093.8073      3133.2706      13520.444      23.823029      23.823029      23.823029    
     42000   642.61542     -3164.5884      71.684717     -3092.9037     -3264.6541      13638.368      23.89209       23.89209       23.89209     
     42500   631.37485     -3159.1565      70.430815     -3088.7257      2068.0188      13556.127      23.843969      23.843969      23.843969    
     43000   652.64029     -3163.7674      72.803007     -3090.9644      1353.2475      13499.517      23.810732      23.810732      23.810732    
     43500   657.59734     -3169.7853      73.355973     -3096.4293      1589.4355      13447.425      23.780065      23.780065      23.780065    
     44000   633.459       -3166.3789      70.663305     -3095.7156      2056.4908      13594.755      23.866595      23.866595      23.866595    
     44500   643.18361     -3165.5423      71.7481       -3093.7942      2362.3614      13622.493      23.882816      23.882816      23.882816    
     45000   648.52928     -3164.6744      72.344417     -3092.33        1821.2059      13603.022      23.871432      23.871432      23.871432    
     45500   657.4794      -3163.4239      73.342817     -3090.0811     -2929.8824      13690.982      23.922774      23.922774      23.922774    
     46000   643.19722     -3166.5557      71.749617     -3094.8061     -1226.4461      13601.294      23.870421      23.870421      23.870421    
     46500   673.87002     -3169.3041      75.171215     -3094.1328      3632.0908      13481.218      23.799968      23.799968      23.799968    
     47000   614.68212     -3169.8088      68.568716     -3101.2401     -1950.4507      13606.765      23.873621      23.873621      23.873621    
     47500   618.39295     -3165.7029      68.982664     -3096.7202     -1060.7235      13574.997      23.855027      23.855027      23.855027    
     48000   649.03226     -3167.44        72.400525     -3095.0395     -3658.8907      13689.703      23.922029      23.922029      23.922029    
     48500   656.50913     -3169.8888      73.234582     -3096.6543      2526.5139      13544.22       23.836986      23.836986      23.836986    
     49000   662.80652     -3170.9755      73.937065     -3097.0385     -5275.3187      13653.387      23.900857      23.900857      23.900857    
     49500   646.85273     -3171.9871      72.157396     -3099.8297      3251.8681      13480.498      23.799545      23.799545      23.799545    
     50000   616.35727     -3167.0029      68.755581     -3098.2473     -2216.2597      13611.662      23.876485      23.876485      23.876485    
Loop time of 1120.38 on 8 procs for 50000 steps with 864 atoms

Performance: 3.856 ns/day, 6.224 hours/ns, 44.628 timesteps/s, 38.559 katom-step/s
90.4% CPU use with 1 MPI tasks x 8 OpenMP threads

MPI task timing breakdown:
Section |  min time  |  avg time  |  max time  |%varavg| %total
---------------------------------------------------------------
Pair    | 1045.5     | 1045.5     | 1045.5     |   0.0 | 93.31
Neigh   | 0.7367     | 0.7367     | 0.7367     |   0.0 |  0.07
Comm    | 1.0457     | 1.0457     | 1.0457     |   0.0 |  0.09
Output  | 0.009807   | 0.009807   | 0.009807   |   0.0 |  0.00
Modify  | 72.901     | 72.901     | 72.901     |   0.0 |  6.51
Other   |            | 0.2173     |            |       |  0.02

Nlocal:            864 ave         864 max         864 min
Histogram: 1 0 0 0 0 0 0 0 0 0
Nghost:           3192 ave        3192 max        3192 min
Histogram: 1 0 0 0 0 0 0 0 0 0
Neighs:          58953 ave       58953 max       58953 min
Histogram: 1 0 0 0 0 0 0 0 0 0
FullNghs:       117906 ave      117906 max      117906 min
Histogram: 1 0 0 0 0 0 0 0 0 0

Total # of neighbors = 117906
Ave neighs/atom = 136.46528
Neighbor list builds = 260
Dangerous builds = 0

=== FINAL RESULTS: FCC at 650 K ===
Atoms: 864 | PE/atom: -3.66671618627274 eV/atom
WARNING: Detected non-ASCII characters in input. Will try to continue by replacing with ASCII equivalents where known. (src/input.cpp:479)
Volume: 13611.6624789035 …³ | Area: 570.086531891719 ²
==========================================
FCC 650 864 -3.66671618627274 13611.6624789035 23.8764849149057 23.8764849149057 23.8764849149057 570.086531891719
Simulation complete!
Total wall time: 0:23:02
