LAMMPS (10 Sep 2025)
  using 8 OpenMP thread(s) per MPI task
Loaded 1 plugins from C:\Users\harsh\Downloads\LAMMPS 64-bit 10Sep2025\plugins
using multi-threaded neighbor list subroutines
Reading data file ...
  orthogonal box = (0 0 0) to (22.71 22.71 22.71)
  1 by 1 by 1 MPI processor grid
  reading atoms ...
  864 atoms
  read_data CPU = 0.006 seconds
=== STAGE 1: Energy Minimization ===
Switching to 'neigh_modify every 1 delay 0 check yes' setting during minimization
No /omp style for force computation currently active
Neighbor list info ...
  update: every = 1 steps, delay = 0 steps, check = yes
  max neighbors/atom: 4000, page size: 100000
  master list distance cutoff = 8
  ghost atom cutoff = 8
  binsize = 4, bins = 6 6 6
  2 neighbor lists, perpetual/occasional/extra = 2 0 0
  (1) pair meam, perpetual
      attributes: full, newton on, omp
      pair build: full/bin/atomonly/omp
      stencil: full/bin/3d
      bin: standard
  (2) pair meam, perpetual, half/full from (1)
      attributes: half, newton on, omp
      pair build: halffull/newton/omp
      stencil: none
      bin: none
Setting up cg style minimization ...
  Unit style    : metal
  Current step  : 0
Per MPI rank memory allocation (min/avg/max) = 20.91 | 20.91 | 20.91 Mbytes
   Step          Temp          PotEng         KinEng         TotEng         Press          Volume           Lx             Ly             Lz      
         0   0             -2881.2972      0             -2881.2972      93296.314      11712.549      22.71          22.71          22.71        
       122   0             -2946.9664      0             -2946.9664      100663.72      11712.549      22.71          22.71          22.71        
Loop time of 4.40983 on 8 procs for 122 steps with 864 atoms

96.4% CPU use with 1 MPI tasks x 8 OpenMP threads

Minimization stats:
  Stopping criterion = energy tolerance
  Energy initial, next-to-last, final = 
      -2881.2971982817  -2946.96578403662  -2946.96635295071
  Force two-norm initial, final = 13.638362 1.3044005
  Force max component initial, final = 1.1743386 0.68922593
  Final line search alpha, max atom move = 0.28088683 0.19359448
  Iterations, force evaluations = 122 243

MPI task timing breakdown:
Section |  min time  |  avg time  |  max time  |%varavg| %total
---------------------------------------------------------------
Pair    | 4.3471     | 4.3471     | 4.3471     |   0.0 | 98.58
Neigh   | 0          | 0          | 0          |   0.0 |  0.00
Comm    | 0.003491   | 0.003491   | 0.003491   |   0.0 |  0.08
Output  | 0          | 0          | 0          |   0.0 |  0.00
Modify  | 0.055734   | 0.055734   | 0.055734   |   0.0 |  1.26
Other   |            | 0.003488   |            |       |  0.08

Nlocal:            864 ave         864 max         864 min
Histogram: 1 0 0 0 0 0 0 0 0 0
Nghost:           3767 ave        3767 max        3767 min
Histogram: 1 0 0 0 0 0 0 0 0 0
Neighs:          60480 ave       60480 max       60480 min
Histogram: 1 0 0 0 0 0 0 0 0 0
FullNghs:       120960 ave      120960 max      120960 min
Histogram: 1 0 0 0 0 0 0 0 0 0

Total # of neighbors = 120960
Ave neighs/atom = 140
Neighbor list builds = 0
Dangerous builds = 0
Minimized PE/atom: -3.41084068628555 eV/atom
=== STAGE 2: NPT Equilibration at 200 K ===
No /omp style for force computation currently active
Setting up Verlet run ...
  Unit style    : metal
  Current step  : 0
  Time step     : 0.002
Per MPI rank memory allocation (min/avg/max) = 19.96 | 19.96 | 19.96 Mbytes
   Step          Temp          PotEng         KinEng         TotEng         Press          Volume           Lx             Ly             Lz      
         0   200           -2946.9664      22.310301     -2924.6561      102698.29      11712.549      22.71          22.71          22.71        
       500   214.28845     -2984.0688      23.9042       -2960.1646      1328.8558      14005.447      24.104548      24.104548      24.104548    
      1000   203.57956     -2994.7174      22.709606     -2972.0078      496.9462       14052.433      24.131473      24.131473      24.131473    
      1500   199.15669     -3000.931       22.216229     -2978.7148     -112.58695      14158.958      24.192297      24.192297      24.192297    
      2000   197.71214     -3003.6612      22.055087     -2981.6061     -505.36975      14204.925      24.218448      24.218448      24.218448    
      2500   197.0212      -3005.2961      21.978012     -2983.3181     -632.71145      14254.066      24.246344      24.246344      24.246344    
      3000   201.37339     -3009.5738      22.463505     -2987.1103     -835.71402      14204.356      24.218125      24.218125      24.218125    
      3500   196.74558     -3012.9583      21.947266     -2991.0111      94.536943      14182.818      24.205878      24.205878      24.205878    
      4000   201.30742     -3016.3869      22.456146     -2993.9308      456.62168      14221.112      24.227644      24.227644      24.227644    
      4500   199.07812     -3020.6639      22.207464     -2998.4564     -32.165953      14239.748      24.238222      24.238222      24.238222    
      5000   198.5271      -3023.3757      22.145996     -3001.2297      256.4169       14207.733      24.220044      24.220044      24.220044    
      5500   206.53426     -3024.386       23.039207     -3001.3468     -1343.2502      14282.147      24.262255      24.262255      24.262255    
      6000   209.86848     -3024.4706      23.411145     -3001.0595     -552.53065      14315.214      24.280965      24.280965      24.280965    
      6500   197.10647     -3027.3044      21.987523     -3005.3169      281.34924      14242.288      24.239664      24.239664      24.239664    
      7000   202.58498     -3027.5471      22.598659     -3004.9484     -834.22142      14317.206      24.282091      24.282091      24.282091    
      7500   201.19887     -3028.0805      22.444036     -3005.6364     -2072.0225      14287.043      24.265027      24.265027      24.265027    
      8000   200.66874     -3030.1101      22.3849       -3007.7252      68.678758      14256.252      24.247583      24.247583      24.247583    
      8500   203.57766     -3030.1178      22.709394     -3007.4084     -120.50672      14291.264      24.267417      24.267417      24.267417    
      9000   199.89662     -3032.2835      22.298769     -3009.9848      482.11085      14256.544      24.247748      24.247748      24.247748    
      9500   207.80558     -3033.2011      23.181025     -3010.0201      87.589532      14254.426      24.246548      24.246548      24.246548    
     10000   210.87523     -3033.2425      23.52345      -3009.7191     -149.76103      14237.804      24.237119      24.237119      24.237119    
     10500   204.85803     -3032.4856      22.852222     -3009.6334      877.24673      14224.688      24.229675      24.229675      24.229675    
     11000   196.85479     -3035.8387      21.959448     -3013.8793     -690.27922      14220.807      24.227471      24.227471      24.227471    
     11500   193.94687     -3038.6057      21.635065     -3016.9706     -326.56162      14211.69       24.222292      24.222292      24.222292    
     12000   199.40092     -3039.166       22.243473     -3016.9225      2322.2856      14127.314      24.174261      24.174261      24.174261    
     12500   196.11984     -3040.0913      21.877464     -3018.2138     -870.26716      14196.817      24.213839      24.213839      24.213839    
     13000   197.115       -3042.1522      21.988475     -3020.1637      971.55911      14116.511      24.168097      24.168097      24.168097    
     13500   196.95096     -3042.0774      21.970176     -3020.1072     -2727.6746      14162.247      24.194169      24.194169      24.194169    
     14000   187.87487     -3044.1257      20.957724     -3023.1679      832.43137      14081.06       24.147849      24.147849      24.147849    
     14500   196.98919     -3046.0324      21.974441     -3024.0579      536.72662      14059.443      24.135485      24.135485      24.135485    
     15000   199.14839     -3047.2227      22.215302     -3025.0074     -1460.4418      14085.601      24.150444      24.150444      24.150444    
     15500   200.37173     -3046.882       22.351768     -3024.5302      2088.009       14009.295      24.106756      24.106756      24.106756    
     16000   202.2548      -3050.1043      22.561827     -3027.5424     -330.03748      14087.752      24.151674      24.151674      24.151674    
     16500   207.48576     -3051.5805      23.145349     -3028.4351      1079.0876      14094.544      24.155554      24.155554      24.155554    
     17000   195.3568      -3049.5444      21.792346     -3027.752       1202.3187      14086.7        24.151072      24.151072      24.151072    
     17500   199.48467     -3052.6103      22.252816     -3030.3575     -933.2113       14099.088      24.15815       24.15815       24.15815     
     18000   200.57755     -3052.5756      22.374728     -3030.2008      142.39785      14093.558      24.154991      24.154991      24.154991    
     18500   208.111       -3053.4984      23.215095     -3030.2833      507.99718      14109.964      24.16436       24.16436       24.16436     
     19000   201.16071     -3055.9714      22.439781     -3033.5316     -1076.29        14054.763      24.132807      24.132807      24.132807    
     19500   201.53117     -3055.7306      22.481106     -3033.2495     -836.5009       14090.843      24.15344       24.15344       24.15344     
     20000   203.17662     -3057.5191      22.664657     -3034.8545     -3.170987       14080.009      24.147248      24.147248      24.147248    
Loop time of 283.686 on 8 procs for 20000 steps with 864 atoms

Performance: 12.182 ns/day, 1.970 hours/ns, 70.500 timesteps/s, 60.912 katom-step/s
95.0% CPU use with 1 MPI tasks x 8 OpenMP threads

MPI task timing breakdown:
Section |  min time  |  avg time  |  max time  |%varavg| %total
---------------------------------------------------------------
Pair    | 266.13     | 266.13     | 266.13     |   0.0 | 93.81
Neigh   | 0.055563   | 0.055563   | 0.055563   |   0.0 |  0.02
Comm    | 0.18934    | 0.18934    | 0.18934    |   0.0 |  0.07
Output  | 0.002526   | 0.002526   | 0.002526   |   0.0 |  0.00
Modify  | 17.267     | 17.267     | 17.267     |   0.0 |  6.09
Other   |            | 0.04195    |            |       |  0.01

Nlocal:            864 ave         864 max         864 min
Histogram: 1 0 0 0 0 0 0 0 0 0
Nghost:           3110 ave        3110 max        3110 min
Histogram: 1 0 0 0 0 0 0 0 0 0
Neighs:          56989 ave       56989 max       56989 min
Histogram: 1 0 0 0 0 0 0 0 0 0
FullNghs:       113978 ave      113978 max      113978 min
Histogram: 1 0 0 0 0 0 0 0 0 0

Total # of neighbors = 113978
Ave neighs/atom = 131.91898
Neighbor list builds = 36
Dangerous builds = 0
=== STAGE 3: NPT Production at 200 K ===
No /omp style for force computation currently active
Setting up Verlet run ...
  Unit style    : metal
  Current step  : 0
  Time step     : 0.001
Per MPI rank memory allocation (min/avg/max) = 19.96 | 19.96 | 19.96 Mbytes
   Step          Temp          PotEng         KinEng         TotEng         Press          Volume           Lx             Ly             Lz      
         0   203.17662     -3057.5191      22.664657     -3034.8545     -3.170987       14080.009      24.147248      24.147248      24.147248    
       500   206.75125     -3057.6539      23.063413     -3034.5905     -1247.6117      14133.135      24.17758       24.17758       24.17758     
      1000   200.26277     -3059.0259      22.339613     -3036.6863     -993.24702      14083.767      24.149396      24.149396      24.149396    
      1500   191.14719     -3058.8578      21.322756     -3037.5351     -1649.3261      14168.031      24.197463      24.197463      24.197463    
      2000   205.97465     -3058.5419      22.976782     -3035.5651     -247.88821      14092.536      24.154407      24.154407      24.154407    
      2500   203.26011     -3059.1059      22.673971     -3036.4319      907.3902       14052.209      24.131345      24.131345      24.131345    
      3000   196.60764     -3061.2506      21.931878     -3039.3187      1053.7089      14075.327      24.144571      24.144571      24.144571    
      3500   196.54503     -3061.8799      21.924893     -3039.955      -831.22154      14078.482      24.146375      24.146375      24.146375    
      4000   194.08811     -3060.4809      21.650821     -3038.83       -256.41829      14116.24       24.167942      24.167942      24.167942    
      4500   206.98223     -3061.5745      23.08918      -3038.4853     -1195.4736      14118.933      24.169479      24.169479      24.169479    
      5000   198.00889     -3062.2401      22.08819      -3040.1519      884.85798      14053.594      24.132138      24.132138      24.132138    
      5500   205.17112     -3063.3652      22.887148     -3040.4781     -1195.531       14078.207      24.146218      24.146218      24.146218    
      6000   202.21483     -3061.8582      22.557368     -3039.3008     -660.76753      14067.355      24.140012      24.140012      24.140012    
      6500   207.38751     -3063.305       23.134389     -3040.1706      208.16294      14054.621      24.132726      24.132726      24.132726    
      7000   201.05949     -3062.4882      22.428489     -3040.0597     -304.73133      14095.16       24.155906      24.155906      24.155906    
      7500   198.35219     -3062.747       22.126485     -3040.6205      1160.8267      14090.11       24.153021      24.153021      24.153021    
      8000   195.87002     -3063.2591      21.849596     -3041.4095     -637.8747       14099.091      24.158152      24.158152      24.158152    
      8500   201.62801     -3062.8289      22.491908     -3040.337       72.876945      14104.813      24.161419      24.161419      24.161419    
      9000   189.35963     -3061.077       21.123351     -3039.9536      774.82836      14153.829      24.189375      24.189375      24.189375    
      9500   195.64034     -3062.943       21.823975     -3041.119       345.0488       14153.686      24.189294      24.189294      24.189294    
     10000   203.38811     -3064.9715      22.68825      -3042.2833      1158.7523      14074.502      24.144099      24.144099      24.144099    
     10500   197.92171     -3063.8587      22.078465     -3041.7802     -576.38122      14145.05       24.184373      24.184373      24.184373    
     11000   204.81943     -3063.8822      22.847916     -3041.0342      1409.8505      14122.15       24.171315      24.171315      24.171315    
     11500   203.84819     -3064.691       22.739573     -3041.9514      879.21986      14124.607      24.172716      24.172716      24.172716    
     12000   196.94588     -3064.6924      21.96961      -3042.7228      582.63982      14097.313      24.157136      24.157136      24.157136    
     12500   195.39069     -3065.8908      21.796125     -3044.0947      233.61547      14096.65       24.156757      24.156757      24.156757    
     13000   207.4408      -3064.7559      23.140333     -3041.6155     -500.09725      14125.714      24.173348      24.173348      24.173348    
     13500   202.90937     -3065.3004      22.634845     -3042.6656     -68.612818      14090.238      24.153094      24.153094      24.153094    
     14000   212.90585     -3064.3803      23.749968     -3040.6303     -1255.8598      14176.484      24.202274      24.202274      24.202274    
     14500   202.13892     -3063.9322      22.548901     -3041.3833      162.86859      14118.682      24.169336      24.169336      24.169336    
     15000   206.7952      -3065.2632      23.068316     -3042.1949     -656.49277      14147.654      24.185857      24.185857      24.185857    
     15500   201.74011     -3065.2881      22.504413     -3042.7836     -225.05279      14137.097      24.179839      24.179839      24.179839    
     16000   205.77802     -3066.8933      22.954847     -3043.9385      913.68146      14084.106      24.14959       24.14959       24.14959     
     16500   196.90405     -3065.526       21.964943     -3043.561      -66.1758        14139.969      24.181477      24.181477      24.181477    
     17000   207.98451     -3065.8143      23.200985     -3042.6133      2101.6706      14064.418      24.138332      24.138332      24.138332    
     17500   200.27718     -3065.0808      22.341221     -3042.7396     -2067.4758      14165.774      24.196178      24.196178      24.196178    
     18000   205.15079     -3066.5061      22.884879     -3043.6212      2373.9724      14074.691      24.144208      24.144208      24.144208    
     18500   207.41592     -3066.1781      23.137558     -3043.0406      1342.3902      14113.585      24.166427      24.166427      24.166427    
     19000   201.14181     -3066.169       22.437671     -3043.7314      1900.6657      14094.935      24.155778      24.155778      24.155778    
     19500   202.39916     -3067.1048      22.577931     -3044.5269      459.61262      14113.645      24.166461      24.166461      24.166461    
     20000   212.29523     -3067.0289      23.681853     -3043.347       623.93804      14097.698      24.157356      24.157356      24.157356    
     20500   203.42348     -3065.9281      22.692195     -3043.2359      1337.7388      14088.484      24.152092      24.152092      24.152092    
     21000   203.45496     -3066.8312      22.695707     -3044.1355      593.37815      14137.259      24.179932      24.179932      24.179932    
     21500   199.86891     -3066.7491      22.295677     -3044.4534     -568.91501      14170.204      24.1987        24.1987        24.1987      
     22000   205.39278     -3065.9448      22.911873     -3043.033       399.19631      14136.336      24.179406      24.179406      24.179406    
     22500   201.07212     -3066.7991      22.429898     -3044.3692     -793.69896      14162.261      24.194178      24.194178      24.194178    
     23000   202.11716     -3067.1627      22.546473     -3044.6162     -254.0587       14124.569      24.172695      24.172695      24.172695    
     23500   201.60029     -3067.0536      22.488815     -3044.5648      1679.2021      14101.097      24.159297      24.159297      24.159297    
     24000   198.73355     -3066.7803      22.169026     -3044.6113      797.30636      14136.267      24.179366      24.179366      24.179366    
     24500   198.30242     -3066.9675      22.120933     -3044.8466     -2346.0895      14183.234      24.206115      24.206115      24.206115    
     25000   200.83538     -3066.2251      22.403489     -3043.8216     -2054.8402      14150.092      24.187246      24.187246      24.187246    
     25500   207.22087     -3066.1665      23.1158       -3043.0507      632.03271      14139.101      24.180982      24.180982      24.180982    
     26000   197.40274     -3067.7714      22.020573     -3045.7508      725.9168       14095.142      24.155896      24.155896      24.155896    
     26500   198.35705     -3068.7529      22.127027     -3046.6258     -784.49204      14127.622      24.174436      24.174436      24.174436    
     27000   201.5455      -3067.5451      22.482704     -3045.0624      32.112888      14070.874      24.142025      24.142025      24.142025    
     27500   204.40081     -3067.6124      22.801218     -3044.8112      1094.756       14081.437      24.148064      24.148064      24.148064    
     28000   199.04049     -3067.6027      22.203266     -3045.3994      1615.7937      14071.417      24.142335      24.142335      24.142335    
     28500   195.36378     -3067.6874      21.793124     -3045.8943      588.38413      14074.046      24.143839      24.143839      24.143839    
     29000   200.00251     -3068.1636      22.310581     -3045.8531     -879.25846      14154.799      24.189928      24.189928      24.189928    
     29500   207.6925      -3069.1124      23.16841      -3045.944      -2054.0228      14166.361      24.196512      24.196512      24.196512    
     30000   193.30776     -3069.4547      21.563772     -3047.8909     -194.40531      14084.384      24.149749      24.149749      24.149749    
     30500   191.78935     -3069.4321      21.39439      -3048.0377     -328.52792      14077.405      24.14576       24.14576       24.14576     
     31000   195.17979     -3068.7512      21.7726       -3046.9786      1387.9377      14079.365      24.14688       24.14688       24.14688     
     31500   196.50854     -3070.3302      21.920823     -3048.4094     -1501.3252      14091.142      24.153611      24.153611      24.153611    
     32000   194.40601     -3069.7201      21.686283     -3048.0338      2231.6468      14014.104      24.109513      24.109513      24.109513    
     32500   207.38619     -3069.969       23.134241     -3046.8347      497.75554      14051.225      24.130782      24.130782      24.130782    
     33000   205.28993     -3070.4113      22.900401     -3047.5109      70.058451      14059.405      24.135464      24.135464      24.135464    
     33500   203.64217     -3070.741       22.716591     -3048.0244     -1278.5631      14110.444      24.164634      24.164634      24.164634    
     34000   190.20922     -3071.0336      21.218125     -3049.8155     -276.23764      14085.296      24.15027       24.15027       24.15027     
     34500   193.37747     -3071.888       21.571548     -3050.3165     -1846.2014      14107.17       24.162765      24.162765      24.162765    
     35000   200.94437     -3071.1559      22.415647     -3048.7403      295.89646      14074.373      24.144026      24.144026      24.144026    
     35500   200.42517     -3072.8261      22.35773      -3050.4683     -114.54024      14078.057      24.146132      24.146132      24.146132    
     36000   196.56984     -3072.0996      21.927662     -3050.172       2658.9264      13991.096      24.096312      24.096312      24.096312    
     36500   203.52275     -3071.8405      22.703269     -3049.1373      1245.6606      14023.473      24.114885      24.114885      24.114885    
     37000   188.71261     -3071.7346      21.051175     -3050.6834      1430.821       14034.917      24.121443      24.121443      24.121443    
     37500   199.9871      -3071.4487      22.308862     -3049.1398      180.0241       14033.604      24.12069       24.12069       24.12069     
     38000   201.96017     -3072.3194      22.528961     -3049.7904     -981.08014      14076.963      24.145507      24.145507      24.145507    
     38500   200.75022     -3072.7221      22.393989     -3050.3282      369.84116      14051.627      24.131012      24.131012      24.131012    
     39000   201.87081     -3071.6153      22.518993     -3049.0963     -713.23674      14100.659      24.159047      24.159047      24.159047    
     39500   209.49344     -3070.6973      23.369309     -3047.328       2977.0045      14024.526      24.115488      24.115488      24.115488    
     40000   195.37647     -3072.4615      21.794539     -3050.667      -400.22673      14107.355      24.162871      24.162871      24.162871    
     40500   192.38031     -3071.5471      21.460314     -3050.0868     -82.451264      14071.561      24.142417      24.142417      24.142417    
     41000   195.9736      -3072.054       21.86115      -3050.1928     -941.91659      14116.352      24.168007      24.168007      24.168007    
     41500   197.29453     -3072.8064      22.008501     -3050.7979     -571.63659      14091.558      24.153848      24.153848      24.153848    
     42000   194.03305     -3073.2289      21.644678     -3051.5842     -24.335528      14087.451      24.151502      24.151502      24.151502    
     42500   199.10348     -3071.7716      22.210293     -3049.5613      2140.8533      14099.661      24.158477      24.158477      24.158477    
     43000   199.49695     -3071.4696      22.254184     -3049.2154      1865.3733      14082.128      24.14846       24.14846       24.14846     
     43500   198.50853     -3072.9582      22.143925     -3050.8143      1795.3679      14034.7        24.121319      24.121319      24.121319    
     44000   191.47442     -3073.0762      21.35926      -3051.7169      228.43892      14097.824      24.157428      24.157428      24.157428    
     44500   196.62466     -3072.1263      21.933777     -3050.1926     -1114.333       14112.294      24.16569       24.16569       24.16569     
     45000   194.80428     -3072.6016      21.73071      -3050.8709      385.95772      14072.834      24.143146      24.143146      24.143146    
     45500   202.99173     -3072.251       22.644033     -3049.6069     -903.50151      14155.531      24.190344      24.190344      24.190344    
     46000   207.40983     -3072.1673      23.136879     -3049.0304      1342.9681      14054.309      24.132547      24.132547      24.132547    
     46500   207.02047     -3071.9854      23.093445     -3048.892       1968.6691      14055.129      24.133016      24.133016      24.133016    
     47000   195.08099     -3072.0931      21.761578     -3050.3316     -540.29977      14105.407      24.161759      24.161759      24.161759    
     47500   203.55201     -3070.8096      22.706533     -3048.1031     -1161.3772      14154.907      24.189989      24.189989      24.189989    
     48000   205.13488     -3072.2019      22.883104     -3049.3188     -403.84585      14119.656      24.169892      24.169892      24.169892    
     48500   203.99198     -3072.9303      22.755612     -3050.1747     -341.29123      14104.616      24.161307      24.161307      24.161307    
     49000   198.67656     -3073.1588      22.162669     -3050.9962     -1126.8271      14115.967      24.167787      24.167787      24.167787    
     49500   197.12751     -3072.7354      21.989871     -3050.7455      42.164382      14101.417      24.15948       24.15948       24.15948     
     50000   201.00079     -3072.8393      22.421941     -3050.4173     -124.57476      14075.397      24.144611      24.144611      24.144611    
Loop time of 698.421 on 8 procs for 50000 steps with 864 atoms

Performance: 6.185 ns/day, 3.880 hours/ns, 71.590 timesteps/s, 61.854 katom-step/s
94.9% CPU use with 1 MPI tasks x 8 OpenMP threads

MPI task timing breakdown:
Section |  min time  |  avg time  |  max time  |%varavg| %total
---------------------------------------------------------------
Pair    | 654.7      | 654.7      | 654.7      |   0.0 | 93.74
Neigh   | 0.024853   | 0.024853   | 0.024853   |   0.0 |  0.00
Comm    | 0.4813     | 0.4813     | 0.4813     |   0.0 |  0.07
Output  | 0.005851   | 0.005851   | 0.005851   |   0.0 |  0.00
Modify  | 43.111     | 43.111     | 43.111     |   0.0 |  6.17
Other   |            | 0.09805    |            |       |  0.01

Nlocal:            864 ave         864 max         864 min
Histogram: 1 0 0 0 0 0 0 0 0 0
Nghost:           3112 ave        3112 max        3112 min
Histogram: 1 0 0 0 0 0 0 0 0 0
Neighs:          56854 ave       56854 max       56854 min
Histogram: 1 0 0 0 0 0 0 0 0 0
FullNghs:       113708 ave      113708 max      113708 min
Histogram: 1 0 0 0 0 0 0 0 0 0

Total # of neighbors = 113708
Ave neighs/atom = 131.60648
Neighbor list builds = 17
Dangerous builds = 0

=== FINAL RESULTS: FCC at 200 K ===
Atoms: 864 | PE/atom: -3.55599461156481 eV/atom
WARNING: Detected non-ASCII characters in input. Will try to continue by replacing with ASCII equivalents where known. (src/input.cpp:479)
Volume: 14075.3967223182 …³ | Area: 582.96224590746 ²
==========================================
FCC 200 864 -3.55599461156481 14075.3967223182 24.1446111152667 24.1446111152667 24.1446111152667 582.96224590746
Simulation complete!
Total wall time: 0:16:26
