LAMMPS (10 Sep 2025)
  using 8 OpenMP thread(s) per MPI task
Loaded 1 plugins from C:\Users\harsh\Downloads\LAMMPS 64-bit 10Sep2025\plugins
using multi-threaded neighbor list subroutines
Reading data file ...
  orthogonal box = (0 0 0) to (16.058395 27.813956 26.223249)
  1 by 1 by 1 MPI processor grid
  reading atoms ...
  432 atoms
  read_data CPU = 0.003 seconds
=== STAGE 1: Energy Minimization ===
Switching to 'neigh_modify every 1 delay 0 check yes' setting during minimization
No /omp style for force computation currently active
Neighbor list info ...
  update: every = 1 steps, delay = 0 steps, check = yes
  max neighbors/atom: 4000, page size: 100000
  master list distance cutoff = 8
  ghost atom cutoff = 8
  binsize = 4, bins = 5 7 7
  2 neighbor lists, perpetual/occasional/extra = 2 0 0
  (1) pair meam, perpetual
      attributes: full, newton on, omp
      pair build: full/bin/atomonly/omp
      stencil: full/bin/3d
      bin: standard
  (2) pair meam, perpetual, half/full from (1)
      attributes: half, newton on, omp
      pair build: halffull/newton/omp
      stencil: none
      bin: none
Setting up cg style minimization ...
  Unit style    : metal
  Current step  : 0
Per MPI rank memory allocation (min/avg/max) = 19.27 | 19.27 | 19.27 Mbytes
   Step          Temp          PotEng         KinEng         TotEng         Press          Volume           Lx             Ly             Lz      
         0   0             -1178.8479      0             -1178.8479     -13437.1        11712.549      16.058395      27.813956      26.223249    
       269   0             -1387.6693      0             -1387.6693     -30263.226      11712.549      16.058395      27.813956      26.223249    
Loop time of 2.46755 on 8 procs for 269 steps with 432 atoms

91.2% CPU use with 1 MPI tasks x 8 OpenMP threads

Minimization stats:
  Stopping criterion = energy tolerance
  Energy initial, next-to-last, final = 
     -1178.84791761422  -1387.66881497019  -1387.66934712573
  Force two-norm initial, final = 22.526845 1.9771677
  Force max component initial, final = 3.0764817 0.64673207
  Final line search alpha, max atom move = 0.08739687 0.056522358
  Iterations, force evaluations = 269 664

MPI task timing breakdown:
Section |  min time  |  avg time  |  max time  |%varavg| %total
---------------------------------------------------------------
Pair    | 2.3269     | 2.3269     | 2.3269     |   0.0 | 94.30
Neigh   | 0.006527   | 0.006527   | 0.006527   |   0.0 |  0.26
Comm    | 0.00348    | 0.00348    | 0.00348    |   0.0 |  0.14
Output  | 0          | 0          | 0          |   0.0 |  0.00
Modify  | 0.12376    | 0.12376    | 0.12376    |   0.0 |  5.02
Other   |            | 0.006931   |            |       |  0.28

Nlocal:            432 ave         432 max         432 min
Histogram: 1 0 0 0 0 0 0 0 0 0
Nghost:           1788 ave        1788 max        1788 min
Histogram: 1 0 0 0 0 0 0 0 0 0
Neighs:          16850 ave       16850 max       16850 min
Histogram: 1 0 0 0 0 0 0 0 0 0
FullNghs:        33700 ave       33700 max       33700 min
Histogram: 1 0 0 0 0 0 0 0 0 0

Total # of neighbors = 33700
Ave neighs/atom = 78.009259
Neighbor list builds = 9
Dangerous builds = 0
Minimized PE/atom: -3.21219756279103 eV/atom
=== STAGE 2: NPT Equilibration at 200 K ===
No /omp style for force computation currently active
Setting up Verlet run ...
  Unit style    : metal
  Current step  : 0
  Time step     : 0.002
Per MPI rank memory allocation (min/avg/max) = 18.18 | 18.18 | 18.18 Mbytes
   Step          Temp          PotEng         KinEng         TotEng         Press          Volume           Lx             Ly             Lz      
         0   200           -1387.6693      11.142224     -1376.5271     -29247.119      11712.549      16.058395      27.813956      26.223249    
       500   361.50343     -1472.0954      20.139762     -1451.9556      1400.8471      7618.4254      13.913618      24.099093      22.720843    
      1000   228.04339     -1506.9481      12.704553     -1494.2435      633.79984      7170.7502      13.635567      23.617495      22.266788    
      1500   190.9412      -1518.196       10.637548     -1507.5584     -1006.5862      7062.4325      13.566561      23.497973      22.154101    
      2000   191.24072     -1523.2132      10.654235     -1512.559      -1402.3         7053.0273      13.560536      23.487537      22.144263    
      2500   209.67441     -1529.3989      11.681197     -1517.7177     -1333.9005      7045.5272      13.555728      23.479209      22.136411    
      3000   197.56703     -1531.9494      11.006681     -1520.9427      509.37768      6995.8038      13.523763      23.423844      22.084212    
      3500   180.02306     -1534.8289      10.029287     -1524.7996      943.12812      6935.5674      13.484836      23.356421      22.020645    
      4000   202.35266     -1535.0194      11.273294     -1523.7461     -1762.545       6969.2888      13.506656      23.394214      22.056276    
      4500   214.17159     -1535.5601      11.93174      -1523.6284      670.76604      6936.6072      13.48551       23.357588      22.021745    
      5000   204.58574     -1536.9903      11.397701     -1525.5926     -441.74385      6982.5322      13.515205      23.409022      22.070238    
      5500   199.2863      -1538.4712      11.102463     -1527.3688      308.00324      6945.922       13.491543      23.368039      22.031598    
      6000   201.42273     -1538.0931      11.221486     -1526.8716      1163.5084      6974.2287      13.509846      23.39974       22.061486    
      6500   200.53372     -1537.8484      11.171959     -1526.6764     -1235.5408      7009.9089      13.532846      23.439576      22.099044    
      7000   198.476       -1538.4812      11.057321     -1527.4239      1345.4093      6995.0003      13.523245      23.422947      22.083367    
      7500   190.07741     -1538.7307      10.589426     -1528.1412     -2684.5424      7049.8003      13.558468      23.483955      22.140885    
      8000   202.89153     -1538.9365      11.303315     -1527.6332      750.23311      6974.039       13.509723      23.399527      22.061286    
      8500   193.12524     -1538.7191      10.759224     -1527.9599      1269.8229      6994.9206      13.523194      23.422858      22.083283    
      9000   211.35581     -1538.2927      11.77487      -1526.5178      222.47177      7004.7887      13.52955       23.433868      22.093663    
      9500   196.68443     -1538.0482      10.95751      -1527.0907     -280.10139      7032.5911      13.547426      23.46483       22.122854    
     10000   194.66897     -1539.7337      10.845227     -1528.8884     -67.86279       7015.0549      13.536156      23.44531       22.104451    
     10500   202.95144     -1539.4652      11.306652     -1528.1585      393.74571      7001.1124      13.527183      23.429768      22.089797    
     11000   202.14934     -1539.7679      11.261967     -1528.5059      2086.5801      6970.5727      13.507485      23.39565       22.05763     
     11500   199.97805     -1540.8104      11.141002     -1529.6694     -1566.3882      7012.3817      13.534437      23.442332      22.101643    
     12000   204.37801     -1541.3615      11.386128     -1529.9754      1145.9493      7014.0391      13.535503      23.444179      22.103384    
     12500   201.4382      -1541.9851      11.222348     -1530.7628     -2056.2302      7022.684       13.541062      23.453807      22.112461    
     13000   202.47299     -1541.7101      11.279998     -1530.4301     -1207.0292      6979.6246      13.513329      23.405773      22.067174    
     13500   201.74372     -1543.0316      11.239369     -1531.7923      4.6778378      6984.7088      13.51661       23.411455      22.072531    
     14000   198.11987     -1543.4741      11.037481     -1532.4366      1433.2978      6977.9828      13.51227       23.403937      22.065444    
     14500   213.91138     -1544.4741      11.917243     -1532.5569      637.10933      6980.0997      13.513636      23.406304      22.067675    
     15000   202.04403     -1544.6388      11.2561       -1533.3827     -1777.4377      6985.0736      13.516845      23.411862      22.072915    
     15500   204.94885     -1544.6671      11.417931     -1533.2492      198.5906       6955.1008      13.497484      23.378328      22.041299    
     16000   206.90353     -1544.0119      11.526828     -1532.4851      827.45046      6946.0976      13.491657      23.368236      22.031784    
     16500   210.58        -1545.6196      11.731648     -1533.888      -2687.4333      6974.0654      13.50974       23.399557      22.061314    
     17000   197.37225     -1546.0022      10.995829     -1535.0064      1887.4491      6888.527       13.45428       23.303496      21.970747    
     17500   194.75198     -1546.3278      10.849852     -1535.4779     -1710.8016      6937.5012      13.486089      23.358592      22.022691    
     18000   197.00721     -1546.4678      10.975493     -1535.4923     -1533.2496      6962.9092      13.502533      23.387073      22.049544    
     18500   193.78548     -1547.6243      10.796007     -1536.8283      20.513942      6943.916       13.490245      23.365789      22.029477    
     19000   204.82649     -1547.4309      11.411113     -1536.0198      105.04326      6906.438       13.465931      23.323676      21.989773    
     19500   208.79181     -1547.2894      11.632026     -1535.6574      400.49244      6927.2319      13.479432      23.34706       22.01182     
     20000   184.60892     -1548.1159      10.28477      -1537.8311     -3210.352       6955.0284      13.497437      23.378246      22.041222    
Loop time of 227.982 on 8 procs for 20000 steps with 432 atoms

Performance: 15.159 ns/day, 1.583 hours/ns, 87.726 timesteps/s, 37.898 katom-step/s
89.0% CPU use with 1 MPI tasks x 8 OpenMP threads

MPI task timing breakdown:
Section |  min time  |  avg time  |  max time  |%varavg| %total
---------------------------------------------------------------
Pair    | 202.23     | 202.23     | 202.23     |   0.0 | 88.71
Neigh   | 0.029692   | 0.029692   | 0.029692   |   0.0 |  0.01
Comm    | 0.25305    | 0.25305    | 0.25305    |   0.0 |  0.11
Output  | 0.003456   | 0.003456   | 0.003456   |   0.0 |  0.00
Modify  | 25.414     | 25.414     | 25.414     |   0.0 | 11.15
Other   |            | 0.04707    |            |       |  0.02

Nlocal:            432 ave         432 max         432 min
Histogram: 1 0 0 0 0 0 0 0 0 0
Nghost:           2304 ave        2304 max        2304 min
Histogram: 1 0 0 0 0 0 0 0 0 0
Neighs:          28686 ave       28686 max       28686 min
Histogram: 1 0 0 0 0 0 0 0 0 0
FullNghs:        57372 ave       57372 max       57372 min
Histogram: 1 0 0 0 0 0 0 0 0 0

Total # of neighbors = 57372
Ave neighs/atom = 132.80556
Neighbor list builds = 31
Dangerous builds = 0
=== STAGE 3: NPT Production at 200 K ===
No /omp style for force computation currently active
Setting up Verlet run ...
  Unit style    : metal
  Current step  : 0
  Time step     : 0.001
Per MPI rank memory allocation (min/avg/max) = 18.46 | 18.46 | 18.46 Mbytes
   Step          Temp          PotEng         KinEng         TotEng         Press          Volume           Lx             Ly             Lz      
         0   184.60892     -1548.1159      10.28477      -1537.8311     -3210.352       6955.0284      13.497437      23.378246      22.041222    
       500   201.65675     -1549.097       11.234524     -1537.8625     -919.33484      6923.4551      13.476981      23.342816      22.007818    
      1000   215.91014     -1549.23        12.028596     -1537.2014     -1343.4536      6930.9301      13.48183       23.351214      22.015736    
      1500   200.90333     -1548.3928      11.19255      -1537.2003      2021.3682      6852.4471      13.430749      23.26274       21.932321    
      2000   200.58254     -1549.5137      11.174679     -1538.339       5274.6819      6818.6435      13.408628      23.224424      21.896197    
      2500   203.42476     -1549.6282      11.333022     -1538.2952     -528.74194      6909.2893      13.467784      23.326885      21.992798    
      3000   202.40903     -1548.945       11.276434     -1537.6686     -658.55946      6915.646       13.471913      23.334037      21.999541    
      3500   206.99422     -1549.0494      11.53188      -1537.5175     -1946.8473      6916.7977      13.47266       23.335332      22.000762    
      4000   191.84594     -1550.7076      10.687953     -1540.0196     -3031.1849      6923.5582      13.477048      23.342932      22.007928    
      4500   189.92816     -1549.9981      10.581111     -1539.417      -310.92389      6907.1752      13.46641       23.324506      21.990555    
      5000   190.9995      -1550.9823      10.640797     -1540.3415     -3551.3784      6917.5085      13.473122      23.336131      22.001516    
      5500   199.62374     -1551.5258      11.121262     -1540.4046      912.95263      6912.5195      13.469882      23.33052       21.996225    
      6000   212.60496     -1550.5182      11.844461     -1538.6737     -1288.7223      6909.3875      13.467847      23.326996      21.992903    
      6500   194.35865     -1550.8842      10.827938     -1540.0563      1699.4042      6897.5176      13.460131      23.31363       21.980301    
      7000   198.88669     -1551.7871      11.080201     -1540.7069     -1011.5366      6909.2624      13.467766      23.326855      21.99277     
      7500   209.7529      -1551.6813      11.68557      -1539.9957      2126.8209      6880.7528      13.449217      23.294726      21.962479    
      8000   205.36976     -1551.2248      11.44138      -1539.7834      1005.0911      6884.1928      13.451458      23.298608      21.966138    
      8500   187.28407     -1551.2789      10.433806     -1540.8451     -4582.8921      6939.8268      13.487596      23.361201      22.025152    
      9000   204.55551     -1551.4994      11.396017     -1540.1034      928.4411       6906.5847      13.466026      23.323841      21.989928    
      9500   212.81466     -1551.189       11.856143     -1539.3329      1071.0094      6898.191       13.460569      23.314389      21.981017    
     10000   199.64234     -1551.1382      11.122299     -1540.0159      250.30015      6896.7479      13.45963       23.312763      21.979484    
     10500   207.48072     -1551.5051      11.558984     -1539.9461     -903.86125      6897.7619      13.46029       23.313905      21.980561    
     11000   211.80594     -1551.8748      11.799947     -1540.0748     -1261.3548      6914.2953      13.471035      23.332518      21.998109    
     11500   191.75826     -1551.2348      10.683068     -1540.5517     -700.31482      6903.905       13.464284      23.320824      21.987084    
     12000   193.20436     -1551.8799      10.763632     -1541.1163     -1063.5124      6887.9786      13.453923      23.302878      21.970164    
     12500   190.12038     -1551.983       10.59182      -1541.3912     -1935.1007      6900.5884      13.462128      23.317089      21.983563    
     13000   210.1315      -1551.6827      11.706662     -1539.9761      1039.86        6892.5963      13.456929      23.308084      21.975072    
     13500   206.31159     -1551.1998      11.49385      -1539.706      -164.07658      6911.7615      13.46939       23.329667      21.995421    
     14000   204.9428      -1552.1784      11.417593     -1540.7608      604.94185      6861.6194      13.436739      23.273114      21.942103    
     14500   199.60427     -1551.1045      11.120178     -1539.9843     -635.8771       6916.6103      13.472539      23.335121      22.000564    
     15000   200.21984     -1551.4433      11.154472     -1540.2889      2960.686       6859.1931      13.435155      23.270371      21.939516    
     15500   197.88366     -1552.1648      11.024321     -1541.1405      629.52389      6896.4748      13.459452      23.312455      21.979194    
     16000   217.25051     -1552.0381      12.10327      -1539.9348      1254.4404      6880.0134      13.448735      23.293892      21.961692    
     16500   200.26416     -1551.7062      11.156941     -1540.5493      2642.8333      6840.2838      13.422798      23.248967      21.919337    
     17000   208.96807     -1551.8249      11.641846     -1540.183       1183.2662      6847.9695      13.427823      23.257672      21.927543    
     17500   211.92136     -1551.7658      11.806377     -1539.9595     -1821.5109      6883.8236      13.451217      23.298191      21.965745    
     18000   211.8213      -1552.6551      11.800802     -1540.8543     -804.48711      6857.3901      13.433978      23.268332      21.937594    
     18500   186.39599     -1551.7426      10.38433      -1541.3583     -739.65826      6871.2303      13.443009      23.283975      21.952343    
     19000   200.6006      -1552.3789      11.175685     -1541.2032      1259.864       6857.5038      13.434052      23.26846       21.937715    
     19500   203.83248     -1552.0289      11.355736     -1540.6731      2142.2605      6853.7771      13.431618      23.264245      21.93374     
     20000   209.02132     -1551.9366      11.644813     -1540.2918      1299.4452      6854.2205      13.431908      23.264746      21.934213    
     20500   206.52583     -1552.9616      11.505786     -1541.4558      1504.7438      6848.2628      13.428015      23.258004      21.927856    
     21000   191.89733     -1552.1553      10.690815     -1541.4644      1827.0255      6842.6874      13.42437       23.25169       21.921904    
     21500   187.48508     -1552.8584      10.445004     -1542.4134     -2083.1883      6891.5688      13.45626       23.306926      21.97398     
     22000   200.7458      -1552.1158      11.183774     -1540.9321     -4134.7512      6936.6243      13.485521      23.357607      22.021763    
     22500   197.80582     -1552.1512      11.019984     -1541.1312      2266.9733      6902.8805      13.463618      23.319671      21.985996    
     23000   195.99133     -1551.5635      10.918897     -1540.6446     -2225.2744      6908.7161      13.467411      23.32624       21.99219     
     23500   212.25871     -1551.8823      11.825171     -1540.0571      328.67232      6930.1897      13.48135       23.350383      22.014952    
     24000   201.20582     -1552.6838      11.209402     -1541.4744      6065.3954      6856.782       13.433581      23.267644      21.936945    
     24500   189.88561     -1553.0394      10.578741     -1542.4607     -1615.8898      6933.1339      13.483259      23.353689      22.018069    
     25000   194.49456     -1552.7778      10.83551      -1541.9422      155.688        6897.6636      13.460226      23.313795      21.980456    
     25500   204.29862     -1552.4538      11.381706     -1541.0721      1043.5019      6918.1745      13.473554      23.33688       22.002222    
     26000   201.20865     -1552.0834      11.20956      -1540.8738      1242.1693      6909.2218      13.46774       23.326809      21.992727    
     26500   189.14429     -1552.8529      10.537441     -1542.3154      1801.9696      6871.7078      13.443321      23.284515      21.952851    
     27000   199.7559      -1553.536       11.128626     -1542.4074     -312.48543      6910.6202      13.468648      23.328383      21.99421     
     27500   191.57444     -1553.9525      10.672827     -1543.2797      438.81295      6881.4268      13.449656      23.295487      21.963196    
     28000   210.80792     -1553.8957      11.744346     -1542.1514     -1259.448       6914.9189      13.47144       23.333219      21.99877     
     28500   206.67942     -1553.6934      11.514342     -1542.179       162.97982      6901.2365      13.462549      23.317819      21.984251    
     29000   204.28871     -1553.5965      11.381153     -1542.2154     -1298.5288      6904.2499      13.464508      23.321213      21.98745     
     29500   197.35453     -1553.3252      10.994842     -1542.3303      159.58709      6913.233       13.470345      23.331323      21.996982    
     30000   189.16306     -1554.0086      10.538487     -1543.4701      156.15043      6893.1444      13.457285      23.308702      21.975655    
     30500   197.98723     -1554.1965      11.030091     -1543.1664     -3038.6303      6914.0979      13.470907      23.332296      21.997899    
     31000   188.59334     -1553.275       10.506747     -1542.7683     -479.47854      6898.7561      13.460936      23.315025      21.981617    
     31500   199.01689     -1553.2375      11.087454     -1542.1501      858.15421      6884.3139      13.451536      23.298744      21.966267    
     32000   207.47487     -1553.3699      11.558658     -1541.8113     -1663.0423      6920.9352      13.475346      23.339984      22.005148    
     32500   195.83285     -1554.1092      10.910068     -1543.1991     -2315.283       6905.5587      13.465359      23.322686      21.98884     
     33000   188.19039     -1554.1118      10.484298     -1543.6275     -2169.5197      6919.3541      13.47432       23.338207      22.003472    
     33500   198.94391     -1552.7494      11.083389     -1541.666       974.50136      6861.6836      13.436781      23.273187      21.942171    
     34000   211.90641     -1553.761       11.805544     -1541.9554     -2472.7419      6933.0414      13.483199      23.353585      22.017971    
     34500   211.14383     -1553.3453      11.76306      -1541.5822      1099.3617      6891.2223      13.456034      23.306535      21.973612    
     35000   201.13776     -1553.2194      11.20561      -1542.0138      149.81207      6914.2113      13.470981      23.332423      21.99802     
     35500   191.80634     -1553.1448      10.685747     -1542.4591      452.87594      6891.8214      13.456424      23.307211      21.974249    
     36000   187.47343     -1553.6476      10.444355     -1543.2032     -428.71343      6900.3927      13.462001      23.316869      21.983355    
     36500   194.15087     -1553.5729      10.816363     -1542.7566     -2238.1222      6908.5214      13.467285      23.326021      21.991984    
     37000   207.66072     -1553.781       11.569012     -1542.212      -768.02185      6899.379       13.461341      23.315727      21.982278    
     37500   216.09851     -1553.9273      12.03909      -1541.8882     -1833.8803      6935.3556      13.484699      23.356183      22.020421    
     38000   209.42116     -1552.8466      11.667088     -1541.1795      2772.5461      6855.3533      13.432647      23.266028      21.935421    
     38500   207.04804     -1554.0125      11.534879     -1542.4776      1248.4188      6859.6465      13.435451      23.270884      21.94        
     39000   199.3559      -1553.2332      11.106341     -1542.1268     -1365.1816      6917.2365      13.472945      23.335826      22.001227    
     39500   210.20978     -1554.2586      11.711023     -1542.5476     -294.24081      6887.4316      13.453567      23.302261      21.969582    
     40000   190.16724     -1554.949       10.594431     -1544.3546     -1022.2582      6883.713       13.451145      23.298067      21.965628    
     40500   187.26364     -1553.3598      10.432667     -1542.9271      2534.4741      6876.2159      13.44626       23.289605      21.957651    
     41000   211.52076     -1553.6225      11.784059     -1541.8384     -3830.5472      6919.7679      13.474589      23.338672      22.003911    
     41500   201.32488     -1553.6713      11.216035     -1542.4553      428.26529      6879.75        13.448563      23.293595      21.961412    
     42000   191.31245     -1554.1031      10.658232     -1543.4448     -1741.4553      6919.4293      13.474369      23.338291      22.003552    
     42500   189.28518     -1554.1577      10.54529      -1543.6124     -931.29706      6909.7291      13.468069      23.32738       21.993265    
     43000   202.45887     -1553.4718      11.279211     -1542.1926     -1866.7157      6908.9499      13.467563      23.326503      21.992438    
     43500   200.46939     -1554.2606      11.168375     -1543.0922      2029.8067      6884.4488      13.451624      23.298897      21.96641     
     44000   203.35224     -1554.3655      11.328982     -1543.0366     -1579.0682      6915.526       13.471835      23.333902      21.999414    
     44500   192.15616     -1555.139       10.705235     -1544.4337     -533.09807      6868.0776      13.440953      23.280414      21.948985    
     45000   203.86012     -1554.7482      11.357276     -1543.3909     -2891.3701      6905.1377      13.465086      23.322212      21.988393    
     45500   197.03966     -1554.1103      10.977301     -1543.133      -705.33549      6887.0802      13.453338      23.301865      21.969209    
     46000   196.87038     -1554.2161      10.96787      -1543.2482      380.16927      6900.4584      13.462043      23.316943      21.983425    
     46500   196.70119     -1554.1602      10.958444     -1543.2018     -486.76761      6908.5123      13.467279      23.326011      21.991974    
     47000   209.50374     -1554.7249      11.671689     -1543.0533     -1625.049       6920.4909      13.475058      23.339485      22.004677    
     47500   176.56192     -1555.7651      9.8364629     -1545.9287      86.166479      6886.9524      13.453255      23.301721      21.969073    
     48000   190.48636     -1554.4292      10.612209     -1543.817       1029.5546      6884.2059      13.451466      23.298623      21.966152    
     48500   195.64142     -1554.8872      10.899403     -1543.9878     -3229.4991      6928.9521      13.480547      23.348993      22.013641    
     49000   189.18624     -1555.5801      10.539778     -1545.0404     -122.88971      6900.0954      13.461807      23.316534      21.983039    
     49500   196.67366     -1555.8548      10.95691      -1544.8979     -2688.3331      6893.9511      13.45781       23.309611      21.976512    
     50000   189.09439     -1555.6788      10.534661     -1545.1441      347.418        6893.4776      13.457502      23.309077      21.976009    
Loop time of 482.217 on 8 procs for 50000 steps with 432 atoms

Performance: 8.959 ns/day, 2.679 hours/ns, 103.688 timesteps/s, 44.793 katom-step/s
89.8% CPU use with 1 MPI tasks x 8 OpenMP threads

MPI task timing breakdown:
Section |  min time  |  avg time  |  max time  |%varavg| %total
---------------------------------------------------------------
Pair    | 428.1      | 428.1      | 428.1      |   0.0 | 88.78
Neigh   | 0.010275   | 0.010275   | 0.010275   |   0.0 |  0.00
Comm    | 0.48839    | 0.48839    | 0.48839    |   0.0 |  0.10
Output  | 0.007478   | 0.007478   | 0.007478   |   0.0 |  0.00
Modify  | 53.522     | 53.522     | 53.522     |   0.0 | 11.10
Other   |            | 0.09231    |            |       |  0.02

Nlocal:            432 ave         432 max         432 min
Histogram: 1 0 0 0 0 0 0 0 0 0
Nghost:           2301 ave        2301 max        2301 min
Histogram: 1 0 0 0 0 0 0 0 0 0
Neighs:          29069 ave       29069 max       29069 min
Histogram: 1 0 0 0 0 0 0 0 0 0
FullNghs:        58138 ave       58138 max       58138 min
Histogram: 1 0 0 0 0 0 0 0 0 0

Total # of neighbors = 58138
Ave neighs/atom = 134.5787
Neighbor list builds = 13
Dangerous builds = 0

=== FINAL RESULTS: DHCP at 200 K ===
Atoms: 432 | PE/atom: -3.59929261805271 eV/atom
WARNING: Detected non-ASCII characters in input. Will try to continue by replacing with ASCII equivalents where known. (src/input.cpp:479)
Volume: 6893.47756729376 …³ | Area: 313.681959872157 ²
==========================================
DHCP 200 432 -3.59929261805271 6893.47756729376 13.4575021441265 23.3090774582609 21.9760089808902 313.681959872157
Simulation complete!
Total wall time: 0:11:52
