LAMMPS (10 Sep 2025)
  using 8 OpenMP thread(s) per MPI task
Loaded 1 plugins from C:\Users\harsh\Downloads\LAMMPS 64-bit 10Sep2025\plugins
using multi-threaded neighbor list subroutines
Reading data file ...
  orthogonal box = (0 0 0) to (16.058395 27.813956 26.223249)
  1 by 1 by 1 MPI processor grid
  reading atoms ...
  432 atoms
  read_data CPU = 0.004 seconds
=== STAGE 1: Energy Minimization ===
Switching to 'neigh_modify every 1 delay 0 check yes' setting during minimization
No /omp style for force computation currently active
Neighbor list info ...
  update: every = 1 steps, delay = 0 steps, check = yes
  max neighbors/atom: 4000, page size: 100000
  master list distance cutoff = 8
  ghost atom cutoff = 8
  binsize = 4, bins = 5 7 7
  2 neighbor lists, perpetual/occasional/extra = 2 0 0
  (1) pair meam, perpetual
      attributes: full, newton on, omp
      pair build: full/bin/atomonly/omp
      stencil: full/bin/3d
      bin: standard
  (2) pair meam, perpetual, half/full from (1)
      attributes: half, newton on, omp
      pair build: halffull/newton/omp
      stencil: none
      bin: none
Setting up cg style minimization ...
  Unit style    : metal
  Current step  : 0
Per MPI rank memory allocation (min/avg/max) = 19.3 | 19.3 | 19.3 Mbytes
   Step          Temp          PotEng         KinEng         TotEng         Press          Volume           Lx             Ly             Lz      
         0   0             -1224.1804      0             -1224.1804     -62379.985      11712.549      16.058395      27.813956      26.223249    
       152   0             -1388.8236      0             -1388.8236     -40320.244      11712.549      16.058395      27.813956      26.223249    
Loop time of 1.26736 on 8 procs for 152 steps with 432 atoms

92.5% CPU use with 1 MPI tasks x 8 OpenMP threads

Minimization stats:
  Stopping criterion = energy tolerance
  Energy initial, next-to-last, final = 
     -1224.18040543531  -1388.82338071865  -1388.82361934046
  Force two-norm initial, final = 9.9509567 2.0067318
  Force max component initial, final = 0.88694384 0.81567885
  Final line search alpha, max atom move = 0.15630972 0.12749853
  Iterations, force evaluations = 152 285

MPI task timing breakdown:
Section |  min time  |  avg time  |  max time  |%varavg| %total
---------------------------------------------------------------
Pair    | 1.1854     | 1.1854     | 1.1854     |   0.0 | 93.53
Neigh   | 0.004596   | 0.004596   | 0.004596   |   0.0 |  0.36
Comm    | 0.002177   | 0.002177   | 0.002177   |   0.0 |  0.17
Output  | 0          | 0          | 0          |   0.0 |  0.00
Modify  | 0.069357   | 0.069357   | 0.069357   |   0.0 |  5.47
Other   |            | 0.005824   |            |       |  0.46

Nlocal:            432 ave         432 max         432 min
Histogram: 1 0 0 0 0 0 0 0 0 0
Nghost:           1720 ave        1720 max        1720 min
Histogram: 1 0 0 0 0 0 0 0 0 0
Neighs:          16995 ave       16995 max       16995 min
Histogram: 1 0 0 0 0 0 0 0 0 0
FullNghs:        33990 ave       33990 max       33990 min
Histogram: 1 0 0 0 0 0 0 0 0 0

Total # of neighbors = 33990
Ave neighs/atom = 78.680556
Neighbor list builds = 6
Dangerous builds = 0
Minimized PE/atom: -3.21486948921403 eV/atom
=== STAGE 2: NPT Equilibration at 650 K ===
No /omp style for force computation currently active
Setting up Verlet run ...
  Unit style    : metal
  Current step  : 0
  Time step     : 0.002
Per MPI rank memory allocation (min/avg/max) = 18.2 | 18.2 | 18.2 Mbytes
   Step          Temp          PotEng         KinEng         TotEng         Press          Volume           Lx             Ly             Lz      
         0   650           -1388.8236      36.21223      -1352.6114     -37017.895      11712.549      16.058395      27.813956      26.223249    
       500   743.98474     -1453.8165      41.448225     -1412.3682     -216.73197      7977.656       14.128957      24.472071      23.07249     
      1000   643.77648     -1482.0386      35.86551      -1446.1731     -2410.0424      7517.4043      13.851845      23.9921        22.619969    
      1500   635.31982     -1493.4584      35.39438      -1458.0641      3214.5849      7305.9849      13.720752      23.76504       22.405895    
      2000   646.73905     -1500.5505      36.030559     -1464.52        376.3875       7349.0972      13.747688      23.811694      22.44988     
      2500   657.84081     -1508.2913      36.64905      -1471.6422     -4731.9996      7302.3871      13.7185        23.761139      22.402216    
      3000   661.53589     -1513.6461      36.854907     -1476.7912      1568.8861      7262.1445      13.693253      23.71741       22.360988    
      3500   645.30046     -1519.7867      35.950413     -1483.8363      99.113314      7259.1131      13.691347      23.714109      22.357877    
      4000   608.5033      -1518.3558      33.900402     -1484.4554      2101.6826      7263.4305      13.694061      23.71881       22.362308    
      4500   680.79962     -1524.3314      37.928111     -1486.4033      1960.1496      7194.9611      13.650896      23.644045      22.29182     
      5000   649.74648     -1525.6795      36.198106     -1489.4814     -1085.24        7253.6519      13.687913      23.708161      22.352268    
      5500   636.38717     -1523.3545      35.453844     -1487.9006      912.0228       7226.0087      13.670503      23.678006      22.323838    
      6000   622.99867     -1528.0646      34.707955     -1493.3567      3012.4935      7142.5745      13.617684      23.586521      22.237585    
      6500   642.00137     -1532.8672      35.766617     -1497.1006     -497.46846      7140.1978      13.616174      23.583905      22.235119    
      7000   602.55158     -1531.7268      33.568825     -1498.158      -3168.2658      7186.9236      13.645811      23.635238      22.283516    
      7500   688.90458     -1533.509       38.379648     -1495.1294     -3975.0716      7274.0067      13.700705      23.730316      22.373157    
      8000   598.66428     -1535.9714      33.352259     -1502.6192     -5111.5304      7230.4833      13.673324      23.682892      22.328445    
      8500   639.56618     -1539.2828      35.63095      -1503.6519      905.50964      7155.7879      13.626076      23.601057      22.25129     
      9000   611.57563     -1537.6696      34.071565     -1503.5981      2435.3973      7155.2829      13.625756      23.600502      22.250766    
      9500   638.23634     -1540.5362      35.556863     -1504.9793      1070.0916      7146.3166      13.620062      23.590639      22.241468    
     10000   682.5367      -1540.8258      38.024886     -1502.8009     -160.9833       7151.6893      13.623474      23.59655       22.247041    
     10500   662.75446     -1543.5724      36.922795     -1506.6496     -1403.5669      7130.5641      13.610047      23.573293      22.225114    
     11000   644.80024     -1545.0935      35.922545     -1509.1709      3754.1514      7057.345       13.563303      23.492329      22.14878     
     11500   607.94435     -1543.266       33.869262     -1509.3967     -2042.317       7110.8378      13.597485      23.551535      22.2046      
     12000   629.90466     -1544.3279      35.092696     -1509.2352      2291.9098      7059.8145      13.564884      23.495069      22.151364    
     12500   626.82865     -1545.6812      34.921328     -1510.7598     -435.20579      7094.6362      13.58715       23.533635      22.187724    
     13000   623.50023     -1547.2504      34.735898     -1512.5145      466.24144      7007.6942      13.53142       23.437107      22.096717    
     13500   688.7881      -1545.914       38.373158     -1507.5409      3477.1979      7005.0767      13.529735      23.434189      22.093965    
     14000   675.3307      -1548.3363      37.623431     -1510.7129      1866.9828      6973.3027      13.509248      23.398704      22.06051     
     14500   621.81932     -1550.04        34.642252     -1515.3978      1722.734       7032.6272      13.547449      23.46487       22.122892    
     15000   628.79653     -1547.8248      35.030961     -1512.7939     -4038.0328      7100.5489      13.590924      23.54017       22.193886    
     15500   652.60911     -1551.5103      36.357586     -1515.1527     -1597.9801      7003.253       13.528561      23.432155      22.092048    
     16000   629.52026     -1549.9552      35.07128      -1514.884      -555.73143      6999.0407      13.525848      23.427456      22.087618    
     16500   638.15138     -1554.148       35.55213      -1518.5959     -969.47071      7017.2662      13.537578      23.447774      22.106773    
     17000   660.62024     -1555.7672      36.803895     -1518.9633     -913.94441      7047.199       13.5568        23.481066      22.138161    
     17500   605.7763      -1553.0268      33.748478     -1519.2784     -5651.1584      7105.3235      13.593969      23.545446      22.198859    
     18000   637.72365     -1552.0337      35.528301     -1516.5054     -1244.435       7060.527       13.565341      23.495859      22.152109    
     18500   692.83842     -1556.3788      38.598806     -1517.78       -2182.8284      7040.4012      13.552439      23.473513      22.131041    
     19000   736.35096     -1556.0402      41.022939     -1515.0173     -2150.103       7026.4305      13.543469      23.457977      22.116392    
     19500   649.04187     -1557.6673      36.158851     -1521.5084      1990.425       6931.1282      13.481958      23.351437      22.015946    
     20000   627.8676      -1554.5412      34.979209     -1519.562       3203.0728      7000.5078      13.526793      23.429093      22.089161    
Loop time of 138.858 on 8 procs for 20000 steps with 432 atoms

Performance: 24.889 ns/day, 0.964 hours/ns, 144.032 timesteps/s, 62.222 katom-step/s
92.3% CPU use with 1 MPI tasks x 8 OpenMP threads

MPI task timing breakdown:
Section |  min time  |  avg time  |  max time  |%varavg| %total
---------------------------------------------------------------
Pair    | 123.41     | 123.41     | 123.41     |   0.0 | 88.87
Neigh   | 0.16672    | 0.16672    | 0.16672    |   0.0 |  0.12
Comm    | 0.13468    | 0.13468    | 0.13468    |   0.0 |  0.10
Output  | 0.002149   | 0.002149   | 0.002149   |   0.0 |  0.00
Modify  | 15.108     | 15.108     | 15.108     |   0.0 | 10.88
Other   |            | 0.04104    |            |       |  0.03

Nlocal:            432 ave         432 max         432 min
Histogram: 1 0 0 0 0 0 0 0 0 0
Nghost:           2299 ave        2299 max        2299 min
Histogram: 1 0 0 0 0 0 0 0 0 0
Neighs:          28449 ave       28449 max       28449 min
Histogram: 1 0 0 0 0 0 0 0 0 0
FullNghs:        56898 ave       56898 max       56898 min
Histogram: 1 0 0 0 0 0 0 0 0 0

Total # of neighbors = 56898
Ave neighs/atom = 131.70833
Neighbor list builds = 191
Dangerous builds = 0
=== STAGE 3: NPT Production at 650 K ===
No /omp style for force computation currently active
Setting up Verlet run ...
  Unit style    : metal
  Current step  : 0
  Time step     : 0.001
Per MPI rank memory allocation (min/avg/max) = 18.46 | 18.46 | 18.46 Mbytes
   Step          Temp          PotEng         KinEng         TotEng         Press          Volume           Lx             Ly             Lz      
         0   627.8676      -1554.5412      34.979209     -1519.562       3203.0728      7000.5078      13.526793      23.429093      22.089161    
       500   656.09026     -1558.5868      36.551525     -1522.0353      7128.6362      6938.7234      13.486881      23.359963      22.023985    
      1000   648.29176     -1558.3941      36.117062     -1522.277      -381.99991      6963.6757      13.503028      23.387931      22.050353    
      1500   653.02873     -1555.9872      36.380964     -1519.6063      1771.6623      7030.3251      13.545971      23.46231       22.120478    
      2000   636.60008     -1556.3504      35.465705     -1520.8847     -4574.1988      7052.8561      13.560426      23.487347      22.144083    
      2500   648.04226     -1557.6113      36.103162     -1521.5081      4337.8953      7005.7474      13.530167      23.434937      22.09467     
      3000   627.62845     -1559.6969      34.965885     -1524.731       1307.2018      6941.1548      13.488456      23.362691      22.026557    
      3500   640.06362     -1558.1481      35.658663     -1522.4894      1590.7149      7034.3213      13.548537      23.466754      22.124668    
      4000   645.85939     -1556.1932      35.981551     -1520.2116      3192.4487      6934.1148      13.483894      23.35479       22.019107    
      4500   647.14082     -1559.2952      36.052941     -1523.2422     -160.80201      6983.3579      13.515738      23.409945      22.071108    
      5000   628.88837     -1558.9587      35.036077     -1523.9226     -1039.1133      7030.5442      13.546112      23.462554      22.120708    
      5500   659.59685     -1555.1865      36.746881     -1518.4396     -2876.9526      7078.4377      13.576802      23.51571       22.170824    
      6000   619.0748      -1557.5805      34.489352     -1523.0912      2341.477       6941.8016      13.488875      23.363417      22.027241    
      6500   667.98614     -1555.611       37.214258     -1518.3967     -1265.7021      7016.5835      13.537139      23.447013      22.106056    
      7000   662.9849      -1559.3835      36.935633     -1522.4479     -1206.5311      7004.9589      13.529659      23.434058      22.093841    
      7500   655.32504     -1557.4589      36.508893     -1520.95       -6975.2544      7051.858       13.559787      23.486239      22.143039    
      8000   675.5679      -1559.3416      37.636646     -1521.7049      2904.1674      6924.2409      13.477491      23.3437        22.008651    
      8500   616.92819     -1559.209       34.369762     -1524.8392      1723.2149      7000.2689      13.526639      23.428827      22.088909    
      9000   616.58444     -1558.8887      34.350611     -1524.5381      139.10057      6994.5466      13.522953      23.422441      22.082889    
      9500   664.5467      -1555.9466      37.022642     -1518.9239     -688.26934      7012.8024      13.534707      23.442801      22.102085    
     10000   611.57803     -1559.5799      34.071699     -1525.5082      6049.8844      6967.6675      13.505608      23.392399      22.054566    
     10500   655.96439     -1560.2209      36.544512     -1523.6764      2250.4187      6938.9561      13.487032      23.360224      22.024231    
     11000   652.88227     -1558.6397      36.372804     -1522.2669     -4402.8811      7046.3878      13.55628       23.480165      22.137312    
     11500   647.50759     -1559.7299      36.073374     -1523.6565     -8201.247       7074.2016      13.574093      23.511018      22.166401    
     12000   637.79299     -1557.1811      35.532163     -1521.649       1594.6889      7037.6174      13.550653      23.470419      22.128123    
     12500   661.49043     -1559.5431      36.852374     -1522.6907     -391.65753      7033.2158      13.547827      23.465525      22.123509    
     13000   620.42196     -1558.9388      34.564404     -1524.3744     -1840.546       7012.5095      13.534519      23.442474      22.101777    
     13500   599.20352     -1560.3688      33.3823       -1526.9865      317.93735      6986.4244      13.517716      23.413371      22.074338    
     14000   621.75979     -1559.3928      34.638936     -1524.7538      1178.7388      6967.8131      13.505702      23.392562      22.054719    
     14500   637.36526     -1555.569       35.508334     -1520.0606     -1828.5093      7046.917       13.556619      23.480753      22.137866    
     15000   687.72472     -1559.6896      38.313916     -1521.3757     -5616.7214      7024.9521      13.542519      23.456331      22.114841    
     15500   638.07394     -1558.6101      35.547815     -1523.0623      2907.1722      6957.3058      13.49891       23.380798      22.043628    
     16000   645.91714     -1559.3829      35.984769     -1523.3981      3283.7835      6993.4158      13.522224      23.421179      22.081699    
     16500   620.59542     -1560.6222      34.574067     -1526.0482      3193.892       6959.3432      13.500227      23.38308       22.045779    
     17000   635.85242     -1560.6031      35.424052     -1525.179       1461.8201      6909.8642      13.468157      23.327532      21.993408    
     17500   644.62407     -1561.1777      35.912731     -1525.2649      1128.211       6963.8048      13.503112      23.388076      22.050489    
     18000   636.26959     -1560.4369      35.447293     -1524.9896     -546.75791      6904.937       13.464955      23.321986      21.98818     
     18500   632.58822     -1563.4218      35.2422       -1528.1796     -9675.7244      7012.3673      13.534427      23.442316      22.101627    
     19000   649.45571     -1558.586       36.181906     -1522.4041     -2325.4106      7028.2532      13.54464       23.460005      22.118305    
     19500   569.15338     -1564.7151      31.708173     -1533.007      -1369.6288      7009.8826      13.532829      23.439547      22.099017    
     20000   682.85927     -1563.7041      38.042857     -1525.6612      222.80222      6935.9453      13.485081      23.356845      22.021045    
     20500   654.64372     -1561.8617      36.470936     -1525.3908     -165.46697      6952.6342      13.495888      23.375564      22.038693    
     21000   638.67962     -1562.1987      35.581559     -1526.6172      185.12835      6955.6603      13.497846      23.378954      22.04189     
     21500   640.30831     -1563.4458      35.672295     -1527.7735     -843.73991      6968.5199      13.506159      23.393353      22.055465    
     22000   660.67645     -1567.031       36.807026     -1530.2239      3809.7358      6923.4683      13.47699       23.342831      22.007832    
     22500   662.07057     -1567.2089      36.884694     -1530.3242     -2772.7275      7024.14        13.541997      23.455427      22.113989    
     23000   631.4652      -1567.3497      35.179635     -1532.17       -27.148638      6975.5462      13.510697      23.401213      22.062875    
     23500   646.53887     -1564.3487      36.019406     -1528.3293      384.51404      6976.2887      13.511176      23.402043      22.063658    
     24000   673.40701     -1562.0813      37.51626      -1524.5651     -1306.2285      6991.8897      13.52124       23.419475      22.080093    
     24500   624.43714     -1567.0455      34.788094     -1532.2574      2114.2589      6892.2756      13.45672       23.307723      21.974732    
     25000   657.07502     -1562.5712      36.606387     -1525.9648      3701.942       6940.3921      13.487962      23.361836      22.02575     
     25500   630.30017     -1564.5566      35.11473      -1529.4419     -1598.5073      6973.5885      13.509433      23.399024      22.060811    
     26000   662.26973     -1568.5299      36.89579      -1531.6341     -2746.7509      6929.2622      13.480748      23.349341      22.01397     
     26500   626.33842     -1563.8404      34.894016     -1528.9464     -3203.1774      7000.9696      13.527091      23.429608      22.089646    
     27000   669.59695     -1565.2825      37.303998     -1527.9785      7523.0626      6848.6457      13.428265      23.258437      21.928265    
     27500   632.14019     -1564.7929      35.21724      -1529.5756     -4608.8127      6980.3261      13.513782      23.406557      22.067914    
     28000   636.5658      -1564.8535      35.463795     -1529.3897     -2231.9489      6935.9057      13.485055      23.356801      22.021003    
     28500   634.34654     -1570.3207      35.340158     -1534.9806      2150.4619      6892.4384      13.456826      23.307906      21.974905    
     29000   667.24634     -1565.6666      37.173042     -1528.4935      687.95107      6995.8434      13.523788      23.423888      22.084254    
     29500   622.56224     -1566.9833      34.683641     -1532.2997     -441.26727      6985.9284      13.517396      23.412817      22.073816    
     30000   656.90941     -1562.7067      36.597161     -1526.1095     -5560.8655      7044.6401      13.555159      23.478224      22.135481    
     30500   630.9033      -1563.181       35.148331     -1528.0327      227.80195      6996.3381      13.524107      23.42444       22.084774    
     31000   656.08814     -1567.5551      36.551407     -1531.0037      1696.5675      6917.9052      13.473379      23.336578      22.001936    
     31500   673.26336     -1566.8221      37.508257     -1529.3138     -764.46762      6935.2381      13.484623      23.356051      22.020296    
     32000   650.88701     -1565.119       36.261646     -1528.8574      2185.3988      6965.584       13.504262      23.390067      22.052367    
     32500   612.339       -1564.9842      34.114093     -1530.8701     -4049.0133      7022.3734      13.540862      23.453461      22.112135    
     33000   673.03486     -1564.4806      37.495527     -1526.9851     -643.62641      6952.4174      13.495748      23.375321      22.038464    
     33500   694.13018     -1567.4694      38.670772     -1528.7986      1685.0482      6937.502       13.48609       23.358592      22.022692    
     34000   639.87134     -1562.6215      35.64795      -1526.9735      2055.3089      6936.8074      13.48564       23.357813      22.021957    
     34500   632.58648     -1565.685       35.242103     -1530.4429      2085.8933      6933.3103      13.483373      23.353887      22.018256    
     35000   645.0789      -1568.2158      35.93807      -1532.2778     -2284.8108      6915.7438      13.471976      23.334147      21.999645    
     35500   676.2083      -1566.5512      37.672323     -1528.8789      1429.6656      6941.4053      13.488618      23.362972      22.026822    
     36000   633.96787     -1565.792       35.319062     -1530.473      -2168.9964      7003.9814      13.52903       23.432968      22.092814    
     36500   650.24091     -1566.1781      36.225651     -1529.9524      2682.9728      6950.688       13.494629      23.373382      22.036636    
     37000   602.83838     -1565.9238      33.584803     -1532.339      -2318.8191      6978.6973      13.512731      23.404736      22.066197    
     37500   620.31425     -1566.5756      34.558403     -1532.0172     -2954.6092      6999.447       13.52611       23.42791       22.088045    
     38000   660.33342     -1566.532       36.787916     -1529.7441     -547.90347      6929.8214      13.481111      23.349969      22.014562    
     38500   638.78432     -1570.0624      35.587391     -1534.475      -4497.6361      6962.7871      13.502454      23.386936      22.049415    
     39000   670.22268     -1566.9702      37.338858     -1529.6313     -980.16824      6907.0813      13.466349      23.3244        21.990455    
     39500   651.47243     -1568.9867      36.29426      -1532.6925     -941.33855      6901.6109      13.462793      23.318241      21.984648    
     40000   625.50157     -1567.7923      34.847395     -1532.9449     -127.37468      6860.7285      13.436157      23.272107      21.941153    
     40500   698.00951     -1568.034       38.886893     -1529.1471     -275.45135      6926.5642      13.478998      23.34631       22.011112    
     41000   618.35776     -1568.8344      34.449405     -1534.385       366.48057      6894.9338      13.45845       23.310719      21.977556    
     41500   639.19618     -1569.6674      35.610337     -1534.057       5242.5085      6837.3198      13.420859      23.245609      21.91617     
     42000   648.97745     -1569.8686      36.155262     -1533.7133      3001.9131      6900.2784      13.461926      23.31674       21.983233    
     42500   613.26382     -1566.8621      34.165616     -1532.6965     -1131.7306      6979.0839      13.51298       23.405168      22.066604    
     43000   647.93576     -1572.2387      36.097228     -1536.1414      1414.5979      6861.1067      13.436404      23.272535      21.941556    
     43500   615.8456      -1569.5459      34.30945      -1535.2365     -930.39659      6898.5927      13.46083       23.314841      21.981443    
     44000   619.61705     -1572.2151      34.519561     -1537.6955     -4797.9987      6967.5951      13.505561      23.392318      22.054489    
     44500   648.19073     -1572.5499      36.111433     -1536.4385     -6007.2861      6986.3626      13.517676      23.413302      22.074273    
     45000   661.41776     -1570.1148      36.848326     -1533.2665      621.04867      6905.7392      13.465476      23.322889      21.989031    
     45500   613.21169     -1573.3483      34.162712     -1539.1856      7851.0771      6851.6686      13.43024       23.261859      21.931491    
     46000   654.25832     -1568.6077      36.449465     -1532.1582      9292.7052      6899.3223      13.461304      23.315663      21.982218    
     46500   669.68081     -1570.1146      37.30867      -1532.8059      4585.3569      6935.2163      13.484608      23.356027      22.020273    
     47000   649.47066     -1573.7945      36.18274      -1537.6118     -699.40459      7038.1856      13.551018      23.471051      22.128719    
     47500   673.78961     -1575.7696      37.537575     -1538.2321     -1333.1748      6996.7671      13.524383      23.424919      22.085226    
     48000   688.34789     -1570.5779      38.348634     -1532.2293     -1377.9242      7036.8756      13.550177      23.469595      22.127346    
     48500   616.68682     -1572.2334      34.356315     -1537.8771      944.55756      6965.5704      13.504253      23.390052      22.052353    
     49000   629.98027     -1574.1495      35.096908     -1539.0526     -1644.5898      7049.0334      13.557976      23.483103      22.140082    
     49500   672.37407     -1573.9795      37.458714     -1536.5208      1507.8739      6962.368       13.502183      23.386467      22.048973    
     50000   648.2017      -1573.4305      36.112044     -1537.3185     -1276.2739      6959.5414      13.500356      23.383302      22.045988    
Loop time of 340.919 on 8 procs for 50000 steps with 432 atoms

Performance: 12.672 ns/day, 1.894 hours/ns, 146.663 timesteps/s, 63.358 katom-step/s
91.6% CPU use with 1 MPI tasks x 8 OpenMP threads

MPI task timing breakdown:
Section |  min time  |  avg time  |  max time  |%varavg| %total
---------------------------------------------------------------
Pair    | 302.22     | 302.22     | 302.22     |   0.0 | 88.65
Neigh   | 0.2035     | 0.2035     | 0.2035     |   0.0 |  0.06
Comm    | 0.32165    | 0.32165    | 0.32165    |   0.0 |  0.09
Output  | 0.005027   | 0.005027   | 0.005027   |   0.0 |  0.00
Modify  | 38.093     | 38.093     | 38.093     |   0.0 | 11.17
Other   |            | 0.0767     |            |       |  0.02

Nlocal:            432 ave         432 max         432 min
Histogram: 1 0 0 0 0 0 0 0 0 0
Nghost:           2299 ave        2299 max        2299 min
Histogram: 1 0 0 0 0 0 0 0 0 0
Neighs:          29094 ave       29094 max       29094 min
Histogram: 1 0 0 0 0 0 0 0 0 0
FullNghs:        58188 ave       58188 max       58188 min
Histogram: 1 0 0 0 0 0 0 0 0 0

Total # of neighbors = 58188
Ave neighs/atom = 134.69444
Neighbor list builds = 230
Dangerous builds = 0

=== FINAL RESULTS: HCP at 650 K ===
Atoms: 432 | PE/atom: -3.63997877950898 eV/atom
WARNING: Detected non-ASCII characters in input. Will try to continue by replacing with ASCII equivalents where known. (src/input.cpp:479)
Volume: 6959.54136073376 …³ | Area: 315.682890972782 ²
==========================================
HCP 650 432 -3.63997877950898 6959.54136073376 13.5003556274882 23.3833018687313 22.0459884261951 315.682890972782
Simulation complete!
Total wall time: 0:08:01
