LAMMPS (10 Sep 2025)
  using 8 OpenMP thread(s) per MPI task
Loaded 1 plugins from C:\Users\harsh\Downloads\LAMMPS 64-bit 10Sep2025\plugins
using multi-threaded neighbor list subroutines
Reading data file ...
  orthogonal box = (0 0 0) to (16.058395 27.813956 26.223249)
  1 by 1 by 1 MPI processor grid
  reading atoms ...
  432 atoms
  read_data CPU = 0.027 seconds
=== STAGE 1: Energy Minimization ===
Switching to 'neigh_modify every 1 delay 0 check yes' setting during minimization
No /omp style for force computation currently active
Neighbor list info ...
  update: every = 1 steps, delay = 0 steps, check = yes
  max neighbors/atom: 4000, page size: 100000
  master list distance cutoff = 8
  ghost atom cutoff = 8
  binsize = 4, bins = 5 7 7
  2 neighbor lists, perpetual/occasional/extra = 2 0 0
  (1) pair meam, perpetual
      attributes: full, newton on, omp
      pair build: full/bin/atomonly/omp
      stencil: full/bin/3d
      bin: standard
  (2) pair meam, perpetual, half/full from (1)
      attributes: half, newton on, omp
      pair build: halffull/newton/omp
      stencil: none
      bin: none
Setting up cg style minimization ...
  Unit style    : metal
  Current step  : 0
Per MPI rank memory allocation (min/avg/max) = 19.27 | 19.27 | 19.27 Mbytes
   Step          Temp          PotEng         KinEng         TotEng         Press          Volume           Lx             Ly             Lz      
         0   0             -1178.8479      0             -1178.8479     -13437.1        11712.549      16.058395      27.813956      26.223249    
       269   0             -1387.6693      0             -1387.6693     -30263.226      11712.549      16.058395      27.813956      26.223249    
Loop time of 2.50994 on 8 procs for 269 steps with 432 atoms

94.6% CPU use with 1 MPI tasks x 8 OpenMP threads

Minimization stats:
  Stopping criterion = energy tolerance
  Energy initial, next-to-last, final = 
     -1178.84791761422  -1387.66881497019  -1387.66934712573
  Force two-norm initial, final = 22.526845 1.9771677
  Force max component initial, final = 3.0764817 0.64673207
  Final line search alpha, max atom move = 0.08739687 0.056522358
  Iterations, force evaluations = 269 664

MPI task timing breakdown:
Section |  min time  |  avg time  |  max time  |%varavg| %total
---------------------------------------------------------------
Pair    | 2.3486     | 2.3486     | 2.3486     |   0.0 | 93.57
Neigh   | 0.006674   | 0.006674   | 0.006674   |   0.0 |  0.27
Comm    | 0.003768   | 0.003768   | 0.003768   |   0.0 |  0.15
Output  | 0          | 0          | 0          |   0.0 |  0.00
Modify  | 0.14264    | 0.14264    | 0.14264    |   0.0 |  5.68
Other   |            | 0.008282   |            |       |  0.33

Nlocal:            432 ave         432 max         432 min
Histogram: 1 0 0 0 0 0 0 0 0 0
Nghost:           1788 ave        1788 max        1788 min
Histogram: 1 0 0 0 0 0 0 0 0 0
Neighs:          16850 ave       16850 max       16850 min
Histogram: 1 0 0 0 0 0 0 0 0 0
FullNghs:        33700 ave       33700 max       33700 min
Histogram: 1 0 0 0 0 0 0 0 0 0

Total # of neighbors = 33700
Ave neighs/atom = 78.009259
Neighbor list builds = 9
Dangerous builds = 0
Minimized PE/atom: -3.21219756279103 eV/atom
=== STAGE 2: NPT Equilibration at 400 K ===
No /omp style for force computation currently active
Setting up Verlet run ...
  Unit style    : metal
  Current step  : 0
  Time step     : 0.002
Per MPI rank memory allocation (min/avg/max) = 18.18 | 18.18 | 18.18 Mbytes
   Step          Temp          PotEng         KinEng         TotEng         Press          Volume           Lx             Ly             Lz      
         0   400           -1387.6693      22.284449     -1365.3849     -28231.012      11712.549      16.058395      27.813956      26.223249    
       500   620.14826     -1460.7943      34.549156     -1426.2451     -2136.2917      7861.7867      14.060219      24.353014      22.960242    
      1000   399.99206     -1500.3095      22.284007     -1478.0255     -3605.4076      7319.903       13.72946       23.780122      22.420114    
      1500   406.49315     -1510.897       22.646189     -1488.2509      434.18093      7226.1396      13.670586      23.678149      22.323973    
      2000   418.48295     -1521.4108      23.314155     -1498.0966      975.18841      7159.4508      13.628401      23.605083      22.255086    
      2500   404.30607     -1527.2997      22.524345     -1504.7754     -235.86515      7117.5609      13.601769      23.558955      22.211596    
      3000   376.1383      -1533.2421      20.955087     -1512.287       3907.7129      7049.2855      13.558138      23.483383      22.140346    
      3500   419.95716     -1536.7363      23.396285     -1513.34       -1198.7037      7091.0389      13.584853      23.529656      22.183973    
      4000   425.96608     -1540.0273      23.731048     -1516.2963      279.74081      7014.3727      13.535717      23.44455       22.103734    
      4500   389.07214     -1541.2205      21.675645     -1519.5448      4454.828       6984.307       13.51635       23.411006      22.072108    
      5000   396.96656     -1543.0528      22.115453     -1520.9374     -2960.828       6981.0293      13.514236      23.407343      22.068655    
      5500   405.57896     -1544.6016      22.595259     -1522.0064      447.7006       6988.4977      13.519053      23.415687      22.076521    
      6000   395.26136     -1547.6483      22.020454     -1525.6279      612.89311      7002.0205      13.527767      23.43078       22.090752    
      6500   400.00915     -1548.1125      22.284959     -1525.8276     -418.8814       6921.1704      13.475499      23.340249      22.005397    
      7000   440.39562     -1549.5414      24.534935     -1525.0064      535.21351      6912.3189      13.469752      23.330294      21.996012    
      7500   409.09084     -1550.482       22.79091      -1527.6911      2435.6419      6905.857       13.465553      23.323022      21.989156    
      8000   392.75535     -1550.5102      21.880841     -1528.6294     -1550.4992      6935.4553      13.484763      23.356295      22.020526    
      8500   386.99126     -1552.9409      21.559717     -1531.3812     -2505.1944      6911.0191      13.468907      23.328832      21.994634    
      9000   388.10087     -1553.7012      21.621535     -1532.0797      2211.2775      6846.9318      13.427145      23.256497      21.926436    
      9500   386.42768     -1555.9269      21.52832      -1534.3985      2249.1603      6875.8304      13.446009      23.28917       21.95724     
     10000   417.3231      -1558.3101      23.249538     -1535.0606      744.8657       6865.5196      13.439284      23.277523      21.946259    
     10500   417.02498     -1555.8156      23.23293      -1532.5826      2321.292       6878.924       13.448025      23.292662      21.960533    
     11000   388.86603     -1560.4554      21.664163     -1538.7913     -4562.65        6920.621       13.475142      23.339631      22.004815    
     11500   416.94776     -1561.197       23.228628     -1537.9684     -1428.6885      6923.9471      13.477301      23.343369      22.00834     
     12000   423.57381     -1557.8175      23.597773     -1534.2198      5412.6543      6857.2354      13.433877      23.268157      21.937429    
     12500   406.37901     -1561.5915      22.639831     -1538.9517      4904.6612      6877.4103      13.447038      23.290954      21.958922    
     13000   407.59672     -1563.0322      22.707671     -1540.3246      1578.8928      6911.9496      13.469512      23.329879      21.995621    
     13500   387.96214     -1565.5605      21.613806     -1543.9467     -1399.1275      6897.8345      13.460337      23.313987      21.980638    
     14000   401.3517      -1565.9988      22.359754     -1543.639      -276.49955      6873.9024      13.444752      23.286993      21.955188    
     14500   375.16133     -1565.5868      20.900659     -1544.6862     -1785.1505      6921.2983      13.475582      23.340392      22.005533    
     15000   438.69477     -1567.9127      24.440178     -1543.4726      1204.4275      6832.5521      13.417738      23.240205      21.911075    
     15500   410.447       -1570.0926      22.866463     -1547.2261     -3059.8885      6851.834       13.430348      23.262046      21.931667    
     16000   392.17507     -1568.438       21.848513     -1546.5895     -1597.1976      6883.582       13.45106       23.297919      21.965488    
     16500   406.55893     -1568.6185      22.649854     -1545.9687      1752.9813      6860.0491      13.435714      23.271339      21.940429    
     17000   419.14128     -1572.3011      23.350831     -1548.9503     -3496.8086      6835.7918      13.419859      23.243877      21.914538    
     17500   427.90803     -1571.3812      23.839237     -1547.5419     -1559.8211      6834.2982      13.418881      23.242184      21.912941    
     18000   399.29674     -1571.4448      22.24527      -1549.1996     -2537.7076      6865.8116      13.439475      23.277853      21.94657     
     18500   400.89432     -1570.2254      22.334272     -1547.8912      1507.2326      6857.9138      13.43432       23.268924      21.938152    
     19000   396.44163     -1571.666       22.086208     -1549.5798     -2471.4636      6871.2851      13.443045      23.284037      21.952401    
     19500   398.50576     -1571.7822      22.201203     -1549.581       234.56464      6835.7457      13.419829      23.243825      21.914488    
     20000   406.57408     -1575.4891      22.650699     -1552.8384     -787.36854      6814.7792      13.406094      23.220036      21.89206     
Loop time of 140.964 on 8 procs for 20000 steps with 432 atoms

Performance: 24.517 ns/day, 0.979 hours/ns, 141.880 timesteps/s, 61.292 katom-step/s
92.1% CPU use with 1 MPI tasks x 8 OpenMP threads

MPI task timing breakdown:
Section |  min time  |  avg time  |  max time  |%varavg| %total
---------------------------------------------------------------
Pair    | 125.71     | 125.71     | 125.71     |   0.0 | 89.18
Neigh   | 0.073983   | 0.073983   | 0.073983   |   0.0 |  0.05
Comm    | 0.12663    | 0.12663    | 0.12663    |   0.0 |  0.09
Output  | 0.002252   | 0.002252   | 0.002252   |   0.0 |  0.00
Modify  | 15.026     | 15.026     | 15.026     |   0.0 | 10.66
Other   |            | 0.02981    |            |       |  0.02

Nlocal:            432 ave         432 max         432 min
Histogram: 1 0 0 0 0 0 0 0 0 0
Nghost:           2309 ave        2309 max        2309 min
Histogram: 1 0 0 0 0 0 0 0 0 0
Neighs:          29182 ave       29182 max       29182 min
Histogram: 1 0 0 0 0 0 0 0 0 0
FullNghs:        58364 ave       58364 max       58364 min
Histogram: 1 0 0 0 0 0 0 0 0 0

Total # of neighbors = 58364
Ave neighs/atom = 135.10185
Neighbor list builds = 87
Dangerous builds = 0
=== STAGE 3: NPT Production at 400 K ===
No /omp style for force computation currently active
Setting up Verlet run ...
  Unit style    : metal
  Current step  : 0
  Time step     : 0.001
Per MPI rank memory allocation (min/avg/max) = 18.47 | 18.47 | 18.47 Mbytes
   Step          Temp          PotEng         KinEng         TotEng         Press          Volume           Lx             Ly             Lz      
         0   406.57408     -1575.4891      22.650699     -1552.8384     -787.36854      6814.7792      13.406094      23.220036      21.89206     
       500   415.15412     -1573.9395      23.128702     -1550.8108     -2359.7261      6827.3427      13.414327      23.234297      21.905505    
      1000   406.42095     -1573.8681      22.642167     -1551.226       687.35008      6892.5531      13.456901      23.308035      21.975027    
      1500   392.15454     -1575.4057      21.84737      -1553.5583      913.80521      6809.316       13.402511      23.21383       21.886208    
      2000   406.88761     -1575.0331      22.668166     -1552.3649      5223.2061      6804.0864      13.399079      23.207885      21.880604    
      2500   416.41645     -1576.471       23.199028     -1553.2719     -926.50411      6858.1338      13.434463      23.269173      21.938387    
      3000   401.56371     -1575.2882      22.371565     -1552.9167     -106.70171      6830.4835      13.416384      23.237859      21.908864    
      3500   393.98871     -1572.695       21.949553     -1550.7454     -6104.9005      6935.711       13.484929      23.356582      22.020797    
      4000   416.98552     -1575.9578      23.230731     -1552.7271      447.36666      6820.4693      13.409824      23.226497      21.898151    
      4500   422.2325      -1575.0719      23.523047     -1551.5488     -3074.2695      6855.1013      13.432483      23.265743      21.935153    
      5000   378.18982     -1575.8893      21.06938      -1554.8199     -4001.6928      6853.7064      13.431572      23.264165      21.933665    
      5500   431.4937      -1577.0748      24.038999     -1553.0358      4384.0582      6773.0254      13.378659      23.172516      21.847258    
      6000   400.25274     -1577.8936      22.29853      -1555.5951     -1121.8048      6768.489       13.375671      23.167342      21.842379    
      6500   414.95071     -1579.1775      23.11737      -1556.0602      2121.9413      6782.9948      13.385219      23.18388       21.857972    
      7000   394.31814     -1577.5397      21.967906     -1555.5718     -444.99041      6833.2917      13.418223      23.241043      21.911866    
      7500   381.54283     -1578.6512      21.256179     -1557.395       112.23084      6790.2597      13.389997      23.192154      21.865773    
      8000   398.69018     -1578.6159      22.211478     -1556.4045     -1328.2741      6800.1396      13.396488      23.203397      21.876373    
      8500   416.13316     -1579.6478      23.183245     -1556.4646     -1294.8439      6785.6523      13.386967      23.186908      21.860826    
      9000   419.35485     -1579.4437      23.36273      -1556.081       1656.3445      6790.7425      13.390314      23.192704      21.866291    
      9500   397.45262     -1581.9698      22.142532     -1559.8273     -362.16249      6790.4563      13.390126      23.192378      21.865984    
     10000   404.87538     -1581.9972      22.556062     -1559.4411     -849.87041      6772.0929      13.378045      23.171453      21.846255    
     10500   410.31677     -1579.1431      22.859208     -1556.2839      2328.5412      6771.176       13.377441      23.170407      21.845269    
     11000   394.88928     -1582.0314      21.999725     -1560.0316     -2946.5908      6786.59        13.387584      23.187976      21.861833    
     11500   441.81871     -1579.5493      24.614216     -1554.9351      107.44591      6807.5219      13.401334      23.211791      21.884286    
     12000   390.6786      -1581.7136      21.765143     -1559.9485      2476.3091      6771.5229      13.377669      23.170803      21.845642    
     12500   402.21767     -1582.2758      22.407998     -1559.8678      2844.1125      6714.8723      13.340259      23.106006      21.784551    
     13000   384.19669     -1582.8851      21.404029     -1561.4811      1884.1876      6771.4066      13.377593      23.17067       21.845517    
     13500   404.30336     -1582.1998      22.524194     -1559.6756      2934.0313      6732.717       13.352066      23.126456      21.803832    
     14000   420.60104     -1581.7223      23.432156     -1558.2902     -4430.6011      6802.4444      13.398001      23.206018      21.878844    
     14500   392.58715     -1582.4863      21.871471     -1560.6148     -970.80259      6753.1529      13.365561      23.149831      21.82587     
     15000   405.67023     -1581.4826      22.600344     -1558.8822      2132.547       6731.0859      13.350987      23.124588      21.802071    
     15500   404.22826     -1584.145       22.52001      -1561.625       1227.3253      6749.355       13.363055      23.14549       21.821778    
     16000   398.76998     -1581.8102      22.215923     -1559.5943     -1622.9614      6811.9315      13.404227      23.216801      21.88901     
     16500   397.95952     -1584.1008      22.170771     -1561.93       -538.51315      6800.5236      13.39674       23.203834      21.876784    
     17000   395.06316     -1584.3172      22.009412     -1562.3078     -1920.5817      6797.142       13.394519      23.199987      21.873158    
     17500   412.2438      -1581.3843      22.966565     -1558.4178      4137.5795      6729.0565      13.349645      23.122264      21.79988     
     18000   399.49311     -1583.2044      22.25621      -1560.9482      80.936561      6777.1886      13.381399      23.177263      21.851733    
     18500   413.17086     -1584.773       23.018212     -1561.7548      43.949304      6814.5692      13.405956      23.219798      21.891835    
     19000   437.70384     -1584.7369      24.384972     -1560.3519      1394.0539      6773.0071      13.378647      23.172495      21.847238    
     19500   391.77559     -1580.9468      21.826258     -1559.1206     -1832.9175      6800.7714      13.396902      23.204116      21.87705     
     20000   415.86478     -1583.7965      23.168294     -1560.6282     -507.96192      6780.1359      13.383339      23.180623      21.854901    
     20500   382.12006     -1583.047       21.288338     -1561.7587     -859.66619      6791.9499      13.391107      23.194078      21.867587    
     21000   389.9398      -1584.5358      21.723984     -1562.8119     -1067.33        6795.443       13.393403      23.198054      21.871335    
     21500   425.58979     -1583.5287      23.710085     -1559.8187      665.21445      6769.7045      13.376472      23.168728      21.843687    
     22000   381.75145     -1582.4971      21.267802     -1561.2293     -1621.4904      6792.5166      13.39148       23.194723      21.868195    
     22500   407.59309     -1585.6439      22.707468     -1562.9365     -3487.1431      6781.9693      13.384545      23.182712      21.85687     
     23000   393.46815     -1582.9297      21.920552     -1561.0092     -3121.5428      6775.7305      13.380439      23.175601      21.850166    
     23500   378.45599     -1585.1383      21.084208     -1564.0541     -1462.8841      6756.5466      13.3678        23.153708      21.829525    
     24000   369.85303     -1583.9196      20.604928     -1563.3147     -1773.1366      6792.856       13.391703      23.19511       21.868559    
     24500   393.11516     -1583.7465      21.900887     -1561.8456     -3180.8556      6747.7327      13.361984      23.143636      21.820029    
     25000   379.98667     -1584.7531      21.169484     -1563.5836      919.30263      6739.1473      13.356315      23.133816      21.810771    
     25500   423.93635     -1585.2702      23.61797      -1561.6522      7724.4011      6681.6162      13.318199      23.067798      21.748528    
     26000   440.25461     -1583.3021      24.527079     -1558.7751      1525.136       6753.45        13.365757      23.15017       21.82619     
     26500   409.79709     -1585.7607      22.830256     -1562.9304      2967.5167      6702.2759      13.331912      23.091549      21.770921    
     27000   412.86998     -1584.4689      23.00145      -1561.4674     -4818.6231      6841.4641      13.42357       23.250305      21.920597    
     27500   382.49307     -1584.5106      21.309119     -1563.2015     -2726.3513      6768.1845      13.37547       23.166994      21.842052    
     28000   382.36381     -1586.4906      21.301917     -1565.1887      1144.541       6715.353       13.340577      23.106557      21.785071    
     28500   390.20498     -1584.8639      21.738757     -1563.1251     -222.01916      6778.1146      13.382009      23.178319      21.852729    
     29000   405.99344     -1582.1414      22.61835      -1559.523       570.09304      6735.5088      13.353911      23.129652      21.806845    
     29500   416.89468     -1584.5572      23.225671     -1561.3315      2277.8515      6718.6705      13.342774      23.110362      21.788658    
     30000   394.02796     -1584.9337      21.95174      -1562.9819      3288.4023      6729.5969      13.350003      23.122883      21.800463    
     30500   430.3034      -1585.945       23.972686     -1561.9723     -2955.2197      6769.7421      13.376496      23.168771      21.843727    
     31000   413.8655      -1585.0932      23.056911     -1562.0363      998.64519      6708.566       13.336081      23.09877       21.77773     
     31500   379.06681     -1584.7015      21.118237     -1563.5833      3284.5627      6757.9843      13.368748      23.15535       21.831074    
     32000   379.11931     -1584.1615      21.121163     -1563.0403      2022.9448      6739.9882      13.35687       23.134778      21.811678    
     32500   393.84129     -1586.949       21.941341     -1565.0077     -824.98065      6728.9734      13.34959       23.122169      21.79979     
     33000   386.58569     -1585.7741      21.537122     -1564.237      -1098.3105      6772.7439      13.378473      23.172195      21.846955    
     33500   387.41047     -1583.8848      21.583072     -1562.3018      3282.7569      6778.4958      13.382259      23.178753      21.853138    
     34000   418.62262     -1584.1501      23.321936     -1560.8282      2512.785       6733.2099      13.352391      23.12702       21.804364    
     34500   414.8176      -1586.4253      23.109954     -1563.3154      432.74846      6753.7505      13.365955      23.150514      21.826514    
     35000   369.63499     -1586.3681      20.59278      -1565.7754     -688.02082      6804.5946      13.399412      23.208463      21.881149    
     35500   394.30766     -1584.6606      21.967323     -1562.6933     -4459.9127      6836.5954      13.420385      23.244788      21.915396    
     36000   412.77329     -1586.1993      22.996063     -1563.2032     -2321.7628      6788.3021      13.38871       23.189925      21.863671    
     36500   401.01254     -1587.4933      22.340859     -1565.1524     -972.32887      6789.8845      13.38975       23.191727      21.86537     
     37000   362.99479     -1586.5709      20.222847     -1566.3481     -224.54748      6789.3554      13.389402      23.191125      21.864802    
     37500   398.18134     -1584.922       22.183129     -1562.7388      5345.1053      6748.7986      13.362688      23.144854      21.821178    
     38000   399.32615     -1586.1212      22.246908     -1563.8743      6978.6194      6757.3284      13.368315      23.154601      21.830367    
     38500   400.49954     -1586.9275      22.312279     -1564.6152      2334.1493      6771.1016      13.377392      23.170322      21.845189    
     39000   436.27576     -1585.3051      24.305412     -1560.9996     -1139.3915      6805.4946      13.400003      23.209486      21.882113    
     39500   412.66331     -1584.7696      22.989936     -1561.7797      6513.0865      6732.2607      13.351764      23.125933      21.803339    
     40000   382.20152     -1587.3479      21.292876     -1566.055      -1872.9311      6838.6124      13.421704      23.247074      21.917551    
     40500   362.64275     -1586.1015      20.203235     -1565.8983     -2717.4153      6829.9042      13.416005      23.237202      21.908244    
     41000   381.69615     -1585.4997      21.264721     -1564.2349     -726.9101       6832.2768      13.417558      23.239892      21.910781    
     41500   405.62661     -1586.7267      22.597914     -1564.1288     -391.12331      6785.0565      13.386576      23.186229      21.860186    
     42000   394.56229     -1589.6534      21.981508     -1567.6719     -161.75213      6784.0473      13.385912      23.185079      21.859102    
     42500   409.84639     -1587.9405      22.833002     -1565.1075      2749.4917      6773.348       13.378871      23.172884      21.847605    
     43000   366.78089     -1587.7052      20.433775     -1567.2714     -4916.3358      6835.7066      13.419803      23.243781      21.914446    
     43500   402.93023     -1587.6771      22.447695     -1565.2294     -495.62115      6810.5699      13.403333      23.215254      21.887552    
     44000   388.0825      -1588.5495      21.620512     -1566.929       1458.3757      6773.5021      13.378972      23.17306       21.84777     
     44500   429.4009      -1587.9998      23.922406     -1564.0774      2889.6459      6739.5137      13.356557      23.134235      21.811166    
     45000   399.61554     -1587.7113      22.26303      -1565.4483     -2360.4518      6805.1954      13.399807      23.209146      21.881793    
     45500   387.57485     -1586.8079      21.59223      -1565.2157      275.13844      6758.9106      13.369359      23.156408      21.832071    
     46000   417.60453     -1586.4141      23.265217     -1563.1489     -718.60857      6793.8641      13.392365      23.196257      21.869641    
     46500   398.29954     -1586.5216      22.189714     -1564.3319      2522.6233      6739.6304      13.356634      23.134369      21.811292    
     47000   383.24481     -1586.7486      21.350999     -1565.3976     -2459.7524      6782.5654      13.384937      23.183391      21.857511    
     47500   422.73731     -1588.8487      23.55117      -1565.2975     -3106.4427      6753.9835      13.366109      23.15078       21.826765    
     48000   389.96336     -1587.8031      21.725296     -1566.0778     -4852.5         6797.2657      13.3946        23.200128      21.87329     
     48500   410.79851     -1587.3806      22.886046     -1564.4946     -3357.4252      6774.3551      13.379534      23.174033      21.848688    
     49000   405.44749     -1587.1828      22.587935     -1564.5949      1530.9552      6741.7127      13.35801       23.136751      21.813538    
     49500   412.5091      -1588.3907      22.981345     -1565.4094      97.993795      6734.0521      13.352948      23.127984      21.805273    
     50000   403.85753     -1590.2369      22.499356     -1567.7375     -3160.8225      6724.226       13.34645       23.11673       21.794662    
Loop time of 349.238 on 8 procs for 50000 steps with 432 atoms

Performance: 12.370 ns/day, 1.940 hours/ns, 143.169 timesteps/s, 61.849 katom-step/s
92.1% CPU use with 1 MPI tasks x 8 OpenMP threads

MPI task timing breakdown:
Section |  min time  |  avg time  |  max time  |%varavg| %total
---------------------------------------------------------------
Pair    | 310.21     | 310.21     | 310.21     |   0.0 | 88.82
Neigh   | 0.058056   | 0.058056   | 0.058056   |   0.0 |  0.02
Comm    | 0.32659    | 0.32659    | 0.32659    |   0.0 |  0.09
Output  | 0.005197   | 0.005197   | 0.005197   |   0.0 |  0.00
Modify  | 38.573     | 38.573     | 38.573     |   0.0 | 11.05
Other   |            | 0.06557    |            |       |  0.02

Nlocal:            432 ave         432 max         432 min
Histogram: 1 0 0 0 0 0 0 0 0 0
Nghost:           2328 ave        2328 max        2328 min
Histogram: 1 0 0 0 0 0 0 0 0 0
Neighs:          29814 ave       29814 max       29814 min
Histogram: 1 0 0 0 0 0 0 0 0 0
FullNghs:        59628 ave       59628 max       59628 min
Histogram: 1 0 0 0 0 0 0 0 0 0

Total # of neighbors = 59628
Ave neighs/atom = 138.02778
Neighbor list builds = 69
Dangerous builds = 0

=== FINAL RESULTS: DHCP at 400 K ===
Atoms: 432 | PE/atom: -3.67520065220313 eV/atom
WARNING: Detected non-ASCII characters in input. Will try to continue by replacing with ASCII equivalents where known. (src/input.cpp:479)
Volume: 6724.22599428079 …³ | Area: 308.526282144252 ²
==========================================
DHCP 400 432 -3.67520065220313 6724.22599428079 13.3464501660674 23.1167297899679 21.7946618600772 308.526282144252
Simulation complete!
Total wall time: 0:08:12
