LAMMPS (10 Sep 2025)
  using 8 OpenMP thread(s) per MPI task
Loaded 1 plugins from C:\Users\harsh\Downloads\LAMMPS 64-bit 10Sep2025\plugins
using multi-threaded neighbor list subroutines
Reading data file ...
  orthogonal box = (0 0 0) to (22.71 22.71 22.71)
  1 by 1 by 1 MPI processor grid
  reading atoms ...
  864 atoms
  read_data CPU = 0.013 seconds
=== STAGE 1: Energy Minimization ===
Switching to 'neigh_modify every 1 delay 0 check yes' setting during minimization
No /omp style for force computation currently active
Neighbor list info ...
  update: every = 1 steps, delay = 0 steps, check = yes
  max neighbors/atom: 4000, page size: 100000
  master list distance cutoff = 8
  ghost atom cutoff = 8
  binsize = 4, bins = 6 6 6
  2 neighbor lists, perpetual/occasional/extra = 2 0 0
  (1) pair meam, perpetual
      attributes: full, newton on, omp
      pair build: full/bin/atomonly/omp
      stencil: full/bin/3d
      bin: standard
  (2) pair meam, perpetual, half/full from (1)
      attributes: half, newton on, omp
      pair build: halffull/newton/omp
      stencil: none
      bin: none
Setting up cg style minimization ...
  Unit style    : metal
  Current step  : 0
Per MPI rank memory allocation (min/avg/max) = 20.91 | 20.91 | 20.91 Mbytes
   Step          Temp          PotEng         KinEng         TotEng         Press          Volume           Lx             Ly             Lz      
         0   0             -2881.2972      0             -2881.2972      93296.314      11712.549      22.71          22.71          22.71        
       122   0             -2946.9664      0             -2946.9664      100663.72      11712.549      22.71          22.71          22.71        
Loop time of 4.12385 on 8 procs for 122 steps with 864 atoms

97.0% CPU use with 1 MPI tasks x 8 OpenMP threads

Minimization stats:
  Stopping criterion = energy tolerance
  Energy initial, next-to-last, final = 
      -2881.2971982817  -2946.96578403662  -2946.96635295071
  Force two-norm initial, final = 13.638362 1.3044005
  Force max component initial, final = 1.1743386 0.68922593
  Final line search alpha, max atom move = 0.28088683 0.19359448
  Iterations, force evaluations = 122 243

MPI task timing breakdown:
Section |  min time  |  avg time  |  max time  |%varavg| %total
---------------------------------------------------------------
Pair    | 4.0621     | 4.0621     | 4.0621     |   0.0 | 98.50
Neigh   | 0          | 0          | 0          |   0.0 |  0.00
Comm    | 0.003547   | 0.003547   | 0.003547   |   0.0 |  0.09
Output  | 0          | 0          | 0          |   0.0 |  0.00
Modify  | 0.054599   | 0.054599   | 0.054599   |   0.0 |  1.32
Other   |            | 0.003573   |            |       |  0.09

Nlocal:            864 ave         864 max         864 min
Histogram: 1 0 0 0 0 0 0 0 0 0
Nghost:           3767 ave        3767 max        3767 min
Histogram: 1 0 0 0 0 0 0 0 0 0
Neighs:          60480 ave       60480 max       60480 min
Histogram: 1 0 0 0 0 0 0 0 0 0
FullNghs:       120960 ave      120960 max      120960 min
Histogram: 1 0 0 0 0 0 0 0 0 0

Total # of neighbors = 120960
Ave neighs/atom = 140
Neighbor list builds = 0
Dangerous builds = 0
Minimized PE/atom: -3.41084068628555 eV/atom
=== STAGE 2: NPT Equilibration at 400 K ===
No /omp style for force computation currently active
Setting up Verlet run ...
  Unit style    : metal
  Current step  : 0
  Time step     : 0.002
Per MPI rank memory allocation (min/avg/max) = 19.96 | 19.96 | 19.96 Mbytes
   Step          Temp          PotEng         KinEng         TotEng         Press          Volume           Lx             Ly             Lz      
         0   400           -2946.9664      44.620602     -2902.3458      104732.87      11712.549      22.71          22.71          22.71        
       500   385.91033     -2960.6564      43.048878     -2917.6075     -1856.9794      14363.435      24.308198      24.308198      24.308198    
      1000   394.67014     -2971.6919      44.026048     -2927.6658      93.082038      14509.942      24.390567      24.390567      24.390567    
      1500   412.1024      -2980.3829      45.970643     -2934.4122      607.216        14497.95       24.383846      24.383846      24.383846    
      2000   414.839       -2997.1452      46.275915     -2950.8692      1318.6359      14492.146      24.380591      24.380591      24.380591    
      2500   389.61318     -3003.2724      43.461936     -2959.8104     -1391.7497      14481.129      24.374412      24.374412      24.374412    
      3000   416.31102     -3013.9689      46.440121     -2967.5288      1373.1995      14456.096      24.360359      24.360359      24.360359    
      3500   395.38329     -3020.5509      44.105601     -2976.4453      2936.494       14409.82       24.334337      24.334337      24.334337    
      4000   407.53004     -3030.6392      45.46059      -2985.1786     -2659.1699      14408.215      24.333433      24.333433      24.333433    
      4500   402.82599     -3038.0246      44.935845     -2993.0887      688.18474      14305.669      24.275567      24.275567      24.275567    
      5000   412.45694     -3046.4902      46.010193     -3000.48       -506.66704      14268.352      24.254441      24.254441      24.254441    
      5500   407.57357     -3052.9159      45.465445     -3007.4504     -1169.142       14255.875      24.247369      24.247369      24.247369    
      6000   390.46092     -3058.1711      43.556503     -3014.6146      1594.0286      14142.56       24.182954      24.182954      24.182954    
      6500   414.74829     -3060.3046      46.265796     -3014.0388      2529.5593      14122.474      24.1715        24.1715        24.1715      
      7000   399.42948     -3069.7431      44.55696      -3025.1862     -475.22914      14074.55       24.144127      24.144127      24.144127    
      7500   405.66262     -3080.0133      45.252276     -3034.7611      198.57049      14036.508      24.122354      24.122354      24.122354    
      8000   402.54548     -3085.529       44.904554     -3040.6244      2112.0978      14022.466      24.114308      24.114308      24.114308    
      8500   413.09194     -3090.8063      46.081027     -3044.7252      315.30479      14041.528      24.12523       24.12523       24.12523     
      9000   403.80813     -3093.322       45.045404     -3048.2766     -1176.6324      14031.614      24.119551      24.119551      24.119551    
      9500   398.30089     -3096.0584      44.431064     -3051.6274     -788.01194      13962.864      24.080093      24.080093      24.080093    
     10000   392.50813     -3102.4798      43.784873     -3058.6949     -1330.9808      13970.717      24.084607      24.084607      24.084607    
     10500   396.07184     -3103.5689      44.18241      -3059.3865      1387.4206      13874.547      24.029216      24.029216      24.029216    
     11000   386.28987     -3103.4892      43.091216     -3060.398      -2418.8912      14047.638      24.128728      24.128728      24.128728    
     11500   400.95869     -3107.3297      44.727546     -3062.6022     -333.41138      13977.302      24.088391      24.088391      24.088391    
     12000   395.17129     -3111.2187      44.081952     -3067.1368      341.45712      13901.762      24.044917      24.044917      24.044917    
     12500   383.2682      -3109.3098      42.754144     -3066.5557      1047.9537      13969.174      24.08372       24.08372       24.08372     
     13000   413.61218     -3115.9821      46.139061     -3069.843       435.52013      13979.965      24.08992       24.08992       24.08992     
     13500   394.35126     -3115.2826      43.990477     -3071.2922     -609.28648      13929.597      24.060954      24.060954      24.060954    
     14000   390.32918     -3115.5094      43.541808     -3071.9676      2059.3694      13948.481      24.071823      24.071823      24.071823    
     14500   403.99702     -3120.9698      45.066475     -3075.9034      161.74139      13960.197      24.07856       24.07856       24.07856     
     15000   391.36421     -3119.6768      43.657267     -3076.0195      856.96897      13951.354      24.073475      24.073475      24.073475    
     15500   428.21084     -3125.8715      47.767564     -3078.1039      1797.2175      13868.487      24.025717      24.025717      24.025717    
     16000   392.95355     -3122.8856      43.83456      -3079.051       342.14191      13891.549      24.039027      24.039027      24.039027    
     16500   402.8824      -3126.6453      44.942138     -3081.7032      948.81614      13833.458      24.005472      24.005472      24.005472    
     17000   393.91865     -3127.4106      43.942219     -3083.4684     -552.38146      13933.794      24.06337       24.06337       24.06337     
     17500   414.06497     -3127.7465      46.18957      -3081.5569     -2443.3582      14003.2        24.103259      24.103259      24.103259    
     18000   416.13432     -3129.5042      46.420409     -3083.0838      4320.2881      13803.646      23.988215      23.988215      23.988215    
     18500   391.10937     -3130.1821      43.628839     -3086.5533     -987.21461      13872.95       24.028294      24.028294      24.028294    
     19000   406.19119     -3130.3934      45.311238     -3085.0821      1554.0012      13806.181      23.989683      23.989683      23.989683    
     19500   414.46886     -3135.849       46.234625     -3089.6144      1273.015       13816.95       23.99592       23.99592       23.99592     
     20000   414.25787     -3134.7929      46.211089     -3088.5818     -1287.9442      13841.926      24.010369      24.010369      24.010369    
Loop time of 254.296 on 8 procs for 20000 steps with 864 atoms

Performance: 13.590 ns/day, 1.766 hours/ns, 78.649 timesteps/s, 67.952 katom-step/s
94.4% CPU use with 1 MPI tasks x 8 OpenMP threads

MPI task timing breakdown:
Section |  min time  |  avg time  |  max time  |%varavg| %total
---------------------------------------------------------------
Pair    | 236.49     | 236.49     | 236.49     |   0.0 | 93.00
Neigh   | 0.15283    | 0.15283    | 0.15283    |   0.0 |  0.06
Comm    | 0.17558    | 0.17558    | 0.17558    |   0.0 |  0.07
Output  | 0.00255    | 0.00255    | 0.00255    |   0.0 |  0.00
Modify  | 17.427     | 17.427     | 17.427     |   0.0 |  6.85
Other   |            | 0.04922    |            |       |  0.02

Nlocal:            864 ave         864 max         864 min
Histogram: 1 0 0 0 0 0 0 0 0 0
Nghost:           3148 ave        3148 max        3148 min
Histogram: 1 0 0 0 0 0 0 0 0 0
Neighs:          57849 ave       57849 max       57849 min
Histogram: 1 0 0 0 0 0 0 0 0 0
FullNghs:       115698 ave      115698 max      115698 min
Histogram: 1 0 0 0 0 0 0 0 0 0

Total # of neighbors = 115698
Ave neighs/atom = 133.90972
Neighbor list builds = 105
Dangerous builds = 0
=== STAGE 3: NPT Production at 400 K ===
No /omp style for force computation currently active
Setting up Verlet run ...
  Unit style    : metal
  Current step  : 0
  Time step     : 0.001
Per MPI rank memory allocation (min/avg/max) = 19.96 | 19.96 | 19.96 Mbytes
   Step          Temp          PotEng         KinEng         TotEng         Press          Volume           Lx             Ly             Lz      
         0   414.25787     -3134.7929      46.211089     -3088.5818     -1287.9442      13841.926      24.010369      24.010369      24.010369    
       500   410.64812     -3135.0444      45.808416     -3089.236       1300.9651      13792.374      23.981684      23.981684      23.981684    
      1000   391.42617     -3137.1127      43.664179     -3093.4485     -673.73796      13806.182      23.989684      23.989684      23.989684    
      1500   401.10961     -3135.7999      44.744381     -3091.0555     -1196.4183      13785.301      23.977584      23.977584      23.977584    
      2000   401.69966     -3136.913       44.810201     -3092.1028      1548.7615      13771.096      23.969345      23.969345      23.969345    
      2500   398.60928     -3138.3859      44.465465     -3093.9205     -3563.5206      13872.719      24.028161      24.028161      24.028161    
      3000   386.9792      -3142.0953      43.168112     -3098.9272      1083.7642      13716.522      23.93764       23.93764       23.93764     
      3500   416.35127     -3139.0402      46.444611     -3092.5956      738.20621      13797.488      23.984647      23.984647      23.984647    
      4000   404.99975     -3139.9489      45.178332     -3094.7706     -440.08739      13781.124      23.975162      23.975162      23.975162    
      4500   406.67636     -3141.9935      45.365361     -3096.6282      1220.7713      13728.944      23.944864      23.944864      23.944864    
      5000   387.47217     -3141.468       43.223104     -3098.2449     -1656.9862      13859.863      24.020736      24.020736      24.020736    
      5500   414.47233     -3140.6776      46.235012     -3094.4426     -4412.0634      13872.003      24.027747      24.027747      24.027747    
      6000   390.33363     -3146.4859      43.542304     -3102.9436      375.94481      13777.4        23.973002      23.973002      23.973002    
      6500   402.52113     -3143.3486      44.901838     -3098.4468     -129.27893      13840.042      24.00928       24.00928       24.00928     
      7000   415.09848     -3142.8213      46.30486      -3096.5164      1770.6646      13735.751      23.948821      23.948821      23.948821    
      7500   396.75992     -3142.9493      44.259166     -3098.6901      2015.7191      13792.985      23.982038      23.982038      23.982038    
      8000   390.33588     -3142.4311      43.542555     -3098.8886      1390.4063      13760.63       23.963272      23.963272      23.963272    
      8500   384.21652     -3144.5888      42.859931     -3101.7288     -2137.9771      13875.656      24.029856      24.029856      24.029856    
      9000   396.96514     -3142.2639      44.282058     -3097.9818      847.30958      13806.546      23.989895      23.989895      23.989895    
      9500   408.15109     -3143.7871      45.529868     -3098.2572     -632.30594      13821.884      23.998775      23.998775      23.998775    
     10000   400.31524     -3145.0175      44.655767     -3100.3618      1290.1747      13734.412      23.948043      23.948043      23.948043    
     10500   393.4766      -3144.3503      43.892907     -3100.4574      2553.884       13683.783      23.91858       23.91858       23.91858     
     11000   425.80829     -3144.8767      47.499556     -3097.3771     -53.63718       13803.841      23.988328      23.988328      23.988328    
     11500   414.61113     -3142.2171      46.250495     -3095.9666     -878.60682      13827.846      24.002226      24.002226      24.002226    
     12000   387.56213     -3144.9972      43.233139     -3101.7641      476.60437      13776.728      23.972612      23.972612      23.972612    
     12500   396.76903     -3142.6491      44.260183     -3098.3889     -1117.6872      13814.658      23.994592      23.994592      23.994592    
     13000   410.94268     -3145.7374      45.841274     -3099.8961      218.8945       13814.85       23.994703      23.994703      23.994703    
     13500   401.99256     -3146.7459      44.842875     -3101.903       3393.1996      13654.621      23.901576      23.901576      23.901576    
     14000   406.18026     -3147.5265      45.310019     -3102.2165     -1575.9897      13833.927      24.005744      24.005744      24.005744    
     14500   399.67468     -3146.2625      44.584312     -3101.6782      1068.0177      13781.642      23.975462      23.975462      23.975462    
     15000   410.13663     -3145.9979      45.751358     -3100.2466      206.80072      13773.713      23.970864      23.970864      23.970864    
     15500   422.21246     -3146.2466      47.098436     -3099.1482      4371.2026      13736.82       23.949442      23.949442      23.949442    
     16000   406.78612     -3149.2184      45.377604     -3103.8408      53.039431      13798.444      23.985201      23.985201      23.985201    
     16500   405.01757     -3149.4815      45.18032      -3104.3012      30.717648      13774.244      23.971171      23.971171      23.971171    
     17000   395.52113     -3147.906       44.120978     -3103.785      -975.46551      13829.497      24.003181      24.003181      24.003181    
     17500   399.77588     -3149.2823      44.595601     -3104.6867      2144.5664      13631.965      23.88835       23.88835       23.88835     
     18000   385.67713     -3149.9024      43.022864     -3106.8795     -386.25931      13691.554      23.923107      23.923107      23.923107    
     18500   395.85491     -3147.6502      44.158212     -3103.492      -745.7235       13778.697      23.973754      23.973754      23.973754    
     19000   408.95028     -3150.3418      45.619019     -3104.7228      1059.4557      13673.389      23.912523      23.912523      23.912523    
     19500   401.62359     -3151.2375      44.801716     -3106.4358     -43.134668      13705.848      23.931429      23.931429      23.931429    
     20000   400.88997     -3148.8798      44.71988      -3104.1599     -2720.9398      13757.644      23.961538      23.961538      23.961538    
     20500   388.85304     -3152.0022      43.377142     -3108.6251     -960.85752      13740.03       23.951307      23.951307      23.951307    
     21000   379.93824     -3148.095       42.382683     -3105.7123      2344.5022      13727.441      23.94399       23.94399       23.94399     
     21500   406.31074     -3149.9774      45.324574     -3104.6528      3120.8346      13733.209      23.947343      23.947343      23.947343    
     22000   417.14554     -3147.7828      46.533213     -3101.2496      1801.9923      13781.759      23.97553       23.97553       23.97553     
     22500   390.58161     -3149.2383      43.569966     -3105.6684     -1263.6604      13760.142      23.962988      23.962988      23.962988    
     23000   398.61243     -3151.9197      44.465817     -3107.4539     -635.81277      13748.369      23.956152      23.956152      23.956152    
     23500   390.75462     -3149.8722      43.589266     -3106.2829     -570.05768      13755.233      23.960138      23.960138      23.960138    
     24000   397.25076     -3151.5413      44.31392      -3107.2274     -578.2058       13712.006      23.935013      23.935013      23.935013    
     24500   396.73653     -3149.3797      44.256557     -3105.1231      692.61023      13748.901      23.956461      23.956461      23.956461    
     25000   380.08489     -3153.4403      42.399041     -3111.0413      3.7326845      13717.871      23.938425      23.938425      23.938425    
     25500   393.75983     -3152.5325      43.924502     -3108.608      -54.598736      13721.116      23.940312      23.940312      23.940312    
     26000   388.95349     -3151.2723      43.388347     -3107.884      -225.94796      13759.326      23.962515      23.962515      23.962515    
     26500   390.16534     -3151.5026      43.523531     -3107.9791     -443.342        13716.81       23.937808      23.937808      23.937808    
     27000   408.14631     -3154.5227      45.529335     -3108.9934     -1346.6694      13759.1        23.962383      23.962383      23.962383    
     27500   398.34224     -3153.9788      44.435676     -3109.5431     -724.02254      13664.069      23.907088      23.907088      23.907088    
     28000   384.81152     -3152.4182      42.926305     -3109.4919     -2957.2182      13783.448      23.976509      23.976509      23.976509    
     28500   407.52011     -3151.1663      45.459482     -3105.7068      3819.6391      13677.03       23.914645      23.914645      23.914645    
     29000   399.101       -3151.8058      44.520317     -3107.2855     -757.24508      13666.409      23.908453      23.908453      23.908453    
     29500   396.79433     -3152.658       44.263004     -3108.3949     -171.54889      13690.705      23.922613      23.922613      23.922613    
     30000   388.40992     -3156.4958      43.327711     -3113.1681      1326.5337      13660.359      23.904924      23.904924      23.904924    
     30500   386.20311     -3154.5915      43.081538     -3111.5099     -1802.4827      13722.865      23.941329      23.941329      23.941329    
     31000   390.38671     -3152.5729      43.548225     -3109.0247     -2073.3422      13782.385      23.975893      23.975893      23.975893    
     31500   403.65065     -3156.6184      45.027838     -3111.5905     -4007.8355      13807.445      23.990416      23.990416      23.990416    
     32000   382.05617     -3153.1621      42.618941     -3110.5431      769.35139      13694.641      23.924905      23.924905      23.924905    
     32500   404.3011      -3155.6374      45.100396     -3110.537      -1167.7988      13734.882      23.948316      23.948316      23.948316    
     33000   384.70178     -3155.6192      42.914063     -3112.7052     -2009.3252      13753.943      23.959389      23.959389      23.959389    
     33500   389.82648     -3154.1817      43.485731     -3110.696      -3055.654       13794.083      23.982675      23.982675      23.982675    
     34000   397.1014      -3155.2218      44.297259     -3110.9245      500.94077      13712.222      23.935138      23.935138      23.935138    
     34500   401.06344     -3156.7096      44.739231     -3111.9703      4476.2935      13685.766      23.919735      23.919735      23.919735    
     35000   388.62378     -3155.5203      43.351568     -3112.1688     -782.02877      13744.736      23.954042      23.954042      23.954042    
     35500   393.31355     -3156.3509      43.874718     -3112.4762      965.22146      13655.996      23.902379      23.902379      23.902379    
     36000   400.67067     -3155.376       44.695416     -3110.6806     -3712.9459      13802.065      23.987299      23.987299      23.987299    
     36500   386.68541     -3158.0089      43.135339     -3114.8735     -1001.3034      13681.292      23.917128      23.917128      23.917128    
     37000   380.59481     -3156.8742      42.455924     -3114.4182      172.19895      13617.973      23.880174      23.880174      23.880174    
     37500   420.51985     -3159.0177      46.909622     -3112.1081     -1692.2956      13695.03       23.925131      23.925131      23.925131    
     38000   402.78632     -3160.8842      44.931421     -3115.9528     -1929.6839      13650.962      23.899442      23.899442      23.899442    
     38500   396.7857      -3161.1488      44.262042     -3116.8867      3397.5435      13603.439      23.871676      23.871676      23.871676    
     39000   385.90083     -3159.4876      43.047819     -3116.4397      205.90693      13658.04       23.903571      23.903571      23.903571    
     39500   399.77212     -3159.8595      44.595181     -3115.2643     -1857.5338      13737.615      23.949904      23.949904      23.949904    
     40000   402.8096      -3163.6715      44.934017     -3118.7374      1798.3633      13597.534      23.868221      23.868221      23.868221    
     40500   406.9234      -3161.7169      45.392918     -3116.3239      1090.404       13585.936      23.861433      23.861433      23.861433    
     41000   406.93039     -3162.5047      45.393698     -3117.111       1599.6814      13594.336      23.86635       23.86635       23.86635     
     41500   407.46119     -3162.3817      45.452909     -3116.9287     -1230.5404      13644.877      23.89589       23.89589       23.89589     
     42000   407.47039     -3161.3819      45.453935     -3115.928      -175.71379      13697.869      23.926784      23.926784      23.926784    
     42500   400.61445     -3162.4386      44.689145     -3117.7495      83.298162      13608.483      23.874626      23.874626      23.874626    
     43000   392.47278     -3162.7571      43.78093      -3118.9761     -793.79222      13672.442      23.91197       23.91197       23.91197     
     43500   390.83293     -3164.3538      43.598002     -3120.7558      128.27411      13607.018      23.873769      23.873769      23.873769    
     44000   393.83861     -3163.7728      43.93329      -3119.8395      2141.581       13568.249      23.851074      23.851074      23.851074    
     44500   420.06073     -3165.2782      46.858407     -3118.4197     -146.648        13604.55       23.872326      23.872326      23.872326    
     45000   392.16263     -3164.3441      43.746332     -3120.5977     -3694.8621      13688.13       23.921113      23.921113      23.921113    
     45500   395.66893     -3163.0271      44.137465     -3118.8897     -230.95103      13604.458      23.872272      23.872272      23.872272    
     46000   393.61329     -3165.656       43.908155     -3121.7478      1766.0948      13572.604      23.853626      23.853626      23.853626    
     46500   401.93434     -3164.9702      44.836381     -3120.1339     -292.84846      13604.648      23.872383      23.872383      23.872383    
     47000   395.97878     -3164.835       44.172029     -3120.663       1701.9386      13607.491      23.874046      23.874046      23.874046    
     47500   392.76471     -3164.8107      43.813494     -3120.9972      374.20945      13680.177      23.916479      23.916479      23.916479    
     48000   385.43656     -3165.3596      42.996028     -3122.3635     -1527.0434      13667.679      23.909193      23.909193      23.909193    
     48500   416.26491     -3167.007       46.434978     -3120.572       564.54628      13659.752      23.90457       23.90457       23.90457     
     49000   408.9246      -3164.348       45.616154     -3118.7319     -1648.1923      13675.684      23.91386       23.91386       23.91386     
     49500   383.35917     -3166.0589      42.764293     -3123.2946      1383.2075      13660.063      23.904752      23.904752      23.904752    
     50000   389.64616     -3165.3169      43.465616     -3121.8513     -3350.5847      13759.116      23.962392      23.962392      23.962392    
Loop time of 652.686 on 8 procs for 50000 steps with 864 atoms

Performance: 6.619 ns/day, 3.626 hours/ns, 76.607 timesteps/s, 66.188 katom-step/s
94.3% CPU use with 1 MPI tasks x 8 OpenMP threads

MPI task timing breakdown:
Section |  min time  |  avg time  |  max time  |%varavg| %total
---------------------------------------------------------------
Pair    | 606.62     | 606.62     | 606.62     |   0.0 | 92.94
Neigh   | 0.1514     | 0.1514     | 0.1514     |   0.0 |  0.02
Comm    | 0.4712     | 0.4712     | 0.4712     |   0.0 |  0.07
Output  | 0.005979   | 0.005979   | 0.005979   |   0.0 |  0.00
Modify  | 45.325     | 45.325     | 45.325     |   0.0 |  6.94
Other   |            | 0.111      |            |       |  0.02

Nlocal:            864 ave         864 max         864 min
Histogram: 1 0 0 0 0 0 0 0 0 0
Nghost:           3199 ave        3199 max        3199 min
Histogram: 1 0 0 0 0 0 0 0 0 0
Neighs:          58649 ave       58649 max       58649 min
Histogram: 1 0 0 0 0 0 0 0 0 0
FullNghs:       117298 ave      117298 max      117298 min
Histogram: 1 0 0 0 0 0 0 0 0 0

Total # of neighbors = 117298
Ave neighs/atom = 135.76157
Neighbor list builds = 92
Dangerous builds = 0

=== FINAL RESULTS: FCC at 400 K ===
Atoms: 864 | PE/atom: -3.66279348775049 eV/atom
WARNING: Detected non-ASCII characters in input. Will try to continue by replacing with ASCII equivalents where known. (src/input.cpp:479)
Volume: 13759.1158790882 …³ | Area: 574.196250455366 ²
==========================================
FCC 400 864 -3.66279348775049 13759.1158790882 23.9623924192758 23.9623924192758 23.9623924192758 574.196250455366
Simulation complete!
Total wall time: 0:15:11
