LAMMPS (10 Sep 2025)
  using 8 OpenMP thread(s) per MPI task
Loaded 1 plugins from C:\Users\harsh\Downloads\LAMMPS 64-bit 10Sep2025\plugins
using multi-threaded neighbor list subroutines
Reading data file ...
  orthogonal box = (0 0 0) to (16.058395 27.813956 26.223249)
  1 by 1 by 1 MPI processor grid
  reading atoms ...
  432 atoms
  read_data CPU = 0.003 seconds
=== STAGE 1: Energy Minimization ===
Switching to 'neigh_modify every 1 delay 0 check yes' setting during minimization
No /omp style for force computation currently active
Neighbor list info ...
  update: every = 1 steps, delay = 0 steps, check = yes
  max neighbors/atom: 4000, page size: 100000
  master list distance cutoff = 8
  ghost atom cutoff = 8
  binsize = 4, bins = 5 7 7
  2 neighbor lists, perpetual/occasional/extra = 2 0 0
  (1) pair meam, perpetual
      attributes: full, newton on, omp
      pair build: full/bin/atomonly/omp
      stencil: full/bin/3d
      bin: standard
  (2) pair meam, perpetual, half/full from (1)
      attributes: half, newton on, omp
      pair build: halffull/newton/omp
      stencil: none
      bin: none
Setting up cg style minimization ...
  Unit style    : metal
  Current step  : 0
Per MPI rank memory allocation (min/avg/max) = 19.3 | 19.3 | 19.3 Mbytes
   Step          Temp          PotEng         KinEng         TotEng         Press          Volume           Lx             Ly             Lz      
         0   0             -1224.1804      0             -1224.1804     -62379.985      11712.549      16.058395      27.813956      26.223249    
       152   0             -1388.8236      0             -1388.8236     -40320.244      11712.549      16.058395      27.813956      26.223249    
Loop time of 1.20135 on 8 procs for 152 steps with 432 atoms

94.9% CPU use with 1 MPI tasks x 8 OpenMP threads

Minimization stats:
  Stopping criterion = energy tolerance
  Energy initial, next-to-last, final = 
     -1224.18040543531  -1388.82338071865  -1388.82361934046
  Force two-norm initial, final = 9.9509567 2.0067318
  Force max component initial, final = 0.88694384 0.81567885
  Final line search alpha, max atom move = 0.15630972 0.12749853
  Iterations, force evaluations = 152 285

MPI task timing breakdown:
Section |  min time  |  avg time  |  max time  |%varavg| %total
---------------------------------------------------------------
Pair    | 1.1156     | 1.1156     | 1.1156     |   0.0 | 92.86
Neigh   | 0.004876   | 0.004876   | 0.004876   |   0.0 |  0.41
Comm    | 0.001861   | 0.001861   | 0.001861   |   0.0 |  0.15
Output  | 0          | 0          | 0          |   0.0 |  0.00
Modify  | 0.074324   | 0.074324   | 0.074324   |   0.0 |  6.19
Other   |            | 0.00466    |            |       |  0.39

Nlocal:            432 ave         432 max         432 min
Histogram: 1 0 0 0 0 0 0 0 0 0
Nghost:           1720 ave        1720 max        1720 min
Histogram: 1 0 0 0 0 0 0 0 0 0
Neighs:          16995 ave       16995 max       16995 min
Histogram: 1 0 0 0 0 0 0 0 0 0
FullNghs:        33990 ave       33990 max       33990 min
Histogram: 1 0 0 0 0 0 0 0 0 0

Total # of neighbors = 33990
Ave neighs/atom = 78.680556
Neighbor list builds = 6
Dangerous builds = 0
Minimized PE/atom: -3.21486948921403 eV/atom
=== STAGE 2: NPT Equilibration at 200 K ===
No /omp style for force computation currently active
Setting up Verlet run ...
  Unit style    : metal
  Current step  : 0
  Time step     : 0.002
Per MPI rank memory allocation (min/avg/max) = 18.2 | 18.2 | 18.2 Mbytes
   Step          Temp          PotEng         KinEng         TotEng         Press          Volume           Lx             Ly             Lz      
         0   200           -1388.8236      11.142224     -1377.6814     -39304.137      11712.549      16.058395      27.813956      26.223249    
       500   348.15841     -1486.5753      19.396296     -1467.179       155.42132      7518.6251      13.852595      23.993399      22.621193    
      1000   188.21943     -1508.3815      10.485916     -1497.8956     -1825.7328      7249.7676      13.685469      23.703928      22.348278    
      1500   191.46258     -1516.2444      10.666595     -1505.5778      103.31243      7146.5628      13.620218      23.59091       22.241724    
      2000   186.873       -1517.3666      10.410904     -1506.9557      527.24481      7100.6907      13.591014      23.540327      22.194033    
      2500   206.37288     -1520.2531      11.497265     -1508.7559      1291.5531      7098.2393      13.58945       23.537618      22.191479    
      3000   205.94267     -1521.8741      11.473297     -1510.4008      1189.3887      7098.5735      13.589663      23.537987      22.191827    
      3500   197.67784     -1523.5474      11.012854     -1512.5346     -13.718614      7093.1676      13.586213      23.532011      22.186192    
      4000   181.0357      -1523.1424      10.085702     -1513.0567      645.08071      7076.4267      13.575516      23.513483      22.168724    
      4500   194.28788     -1524.0983      10.823996     -1513.2743     -1337.3431      7108.0819      13.595728      23.548492      22.201731    
      5000   218.23929     -1525.3312      12.158356     -1513.1728      2134.5077      7084.842       13.580895      23.5228        22.177509    
      5500   187.59502     -1526.1686      10.451129     -1515.7175     -94.600442      7086.0426      13.581662      23.524129      22.178761    
      6000   196.96403     -1527.1829      10.973087     -1516.2098      2014.7812      7090.3577      13.584418      23.528903      22.183262    
      6500   188.55217     -1528.1731      10.504453     -1517.6686      1714.6666      7057.919       13.56367       23.492966      22.149381    
      7000   212.14788     -1528.9194      11.818996     -1517.1004      2157.2487      7059.0549      13.564398      23.494226      22.150569    
      7500   199.19431     -1529.423       11.097339     -1518.3257      2429.2291      7043.4592      13.554401      23.476912      22.134244    
      8000   203.66619     -1529.1883      11.346472     -1517.8418      940.89983      7061.3715      13.565882      23.496796      22.152992    
      8500   208.19235     -1528.7198      11.59863      -1517.1212     -942.02933      7062.9472      13.566891      23.498544      22.154639    
      9000   201.22805     -1529.2028      11.210641     -1517.9922     -53.674144      7056.7291      13.562908      23.491646      22.148136    
      9500   201.22415     -1530.2738      11.210423     -1519.0633      1110.0347      7055.0211      13.561814      23.48975       22.146349    
     10000   198.825       -1530.5769      11.076764     -1519.5001      1409.3076      7037.5746      13.550625      23.470372      22.128079    
     10500   205.96611     -1530.9374      11.474603     -1519.4628      1377.2389      7027.5283      13.544174      23.459198      22.117544    
     11000   207.38403     -1531.2279      11.553597     -1519.6743     -946.52621      7058.2621      13.56389       23.493347      22.14974     
     11500   203.41726     -1531.4781      11.332604     -1520.1455      1408.0902      7018.1889      13.538172      23.448801      22.107742    
     12000   205.77024     -1532.5587      11.463691     -1521.095       990.00274      7007.4873      13.531287      23.436877      22.096499    
     12500   199.973       -1533.386       11.140721     -1522.2452      805.64476      7035.2902      13.549159      23.467832      22.125684    
     13000   203.2411      -1534.323       11.32279      -1523.0002      1209.4358      7017.7013      13.537858      23.448258      22.10723     
     13500   199.63044     -1533.8913      11.121636     -1522.7696      3953.5154      7002.2815      13.527936      23.431072      22.091026    
     14000   196.50314     -1533.8438      10.94741      -1522.8964      942.28957      6999.1693      13.525931      23.4276        22.087753    
     14500   193.79109     -1534.3402      10.796319     -1523.5439     -1428.7171      7012.9882      13.534827      23.443008      22.10228     
     15000   215.7119      -1535.2933      12.017552     -1523.2758      939.08815      6992.2767      13.52149       23.419907      22.0805      
     15500   204.24609     -1534.6117      11.378779     -1523.2329     -167.09229      6974.5854      13.510076      23.400139      22.061862    
     16000   192.44153     -1534.8705      10.721133     -1524.1494      1066.1661      6991.4401      13.52095       23.418973      22.079619    
     16500   199.47906     -1535.6443      11.113202     -1524.5311     -168.97678      7030.6455      13.546177      23.462666      22.120814    
     17000   193.3541      -1536.1562      10.771974     -1525.3842     -2043.7697      7030.1418      13.545853      23.462106      22.120286    
     17500   194.34173     -1536.6991      10.826996     -1525.8721      74.207238      7019.9984      13.539335      23.450816      22.109642    
     18000   202.02911     -1536.288       11.255268     -1525.0328     -720.09266      7044.0395      13.554773      23.477556      22.134852    
     18500   212.08627     -1536.6577      11.815564     -1524.8422     -2360.8587      7044.6752      13.555181      23.478262      22.135518    
     19000   201.01172     -1537.7219      11.198589     -1526.5233     -154.94814      7015.2928      13.536309      23.445575      22.104701    
     19500   201.37863     -1536.7775      11.219029     -1525.5585      1322.2605      7021.2032      13.54011       23.452158      22.110907    
     20000   205.14411     -1536.3951      11.428809     -1524.9663     -1154.71        7046.452       13.556321      23.480236      22.137379    
Loop time of 147.681 on 8 procs for 20000 steps with 432 atoms

Performance: 23.402 ns/day, 1.026 hours/ns, 135.427 timesteps/s, 58.505 katom-step/s
92.7% CPU use with 1 MPI tasks x 8 OpenMP threads

MPI task timing breakdown:
Section |  min time  |  avg time  |  max time  |%varavg| %total
---------------------------------------------------------------
Pair    | 131.65     | 131.65     | 131.65     |   0.0 | 89.14
Neigh   | 0.029663   | 0.029663   | 0.029663   |   0.0 |  0.02
Comm    | 0.12681    | 0.12681    | 0.12681    |   0.0 |  0.09
Output  | 0.002269   | 0.002269   | 0.002269   |   0.0 |  0.00
Modify  | 15.85      | 15.85      | 15.85      |   0.0 | 10.73
Other   |            | 0.02646    |            |       |  0.02

Nlocal:            432 ave         432 max         432 min
Histogram: 1 0 0 0 0 0 0 0 0 0
Nghost:           2288 ave        2288 max        2288 min
Histogram: 1 0 0 0 0 0 0 0 0 0
Neighs:          28477 ave       28477 max       28477 min
Histogram: 1 0 0 0 0 0 0 0 0 0
FullNghs:        56954 ave       56954 max       56954 min
Histogram: 1 0 0 0 0 0 0 0 0 0

Total # of neighbors = 56954
Ave neighs/atom = 131.83796
Neighbor list builds = 34
Dangerous builds = 0
=== STAGE 3: NPT Production at 200 K ===
No /omp style for force computation currently active
Setting up Verlet run ...
  Unit style    : metal
  Current step  : 0
  Time step     : 0.001
Per MPI rank memory allocation (min/avg/max) = 18.46 | 18.46 | 18.46 Mbytes
   Step          Temp          PotEng         KinEng         TotEng         Press          Volume           Lx             Ly             Lz      
         0   205.14411     -1536.3951      11.428809     -1524.9663     -1154.71        7046.452       13.556321      23.480236      22.137379    
       500   204.70396     -1537.4923      11.404287     -1526.088      -628.1745       7049.8905      13.558525      23.484055      22.140979    
      1000   200.06712     -1537.0347      11.145964     -1525.8888     -1433.9046      7061.2285      13.56579       23.496638      22.152842    
      1500   188.63694     -1536.6571      10.509176     -1526.148      -2457.9142      7056.7769      13.562939      23.491699      22.148186    
      2000   200.36793     -1537.882       11.162722     -1526.7193      1756.9133      7005.5746      13.530056      23.434744      22.094489    
      2500   192.03855     -1537.5844      10.698683     -1526.8857     -1005.5488      7024.6902      13.542351      23.45604       22.114566    
      3000   193.50415     -1537.2711      10.780333     -1526.4908     -417.50168      7053.8647      13.561073      23.488467      22.145139    
      3500   192.8796      -1537.6706      10.745539     -1526.9251      674.36695      7017.9891      13.538043      23.448579      22.107532    
      4000   200.56379     -1537.1588      11.173634     -1525.9852     -2145.237       7061.9486      13.566251      23.497436      22.153595    
      4500   201.3047      -1536.9049      11.214911     -1525.69       -1061.2541      7045.1658      13.555496      23.478808      22.136032    
      5000   207.3671      -1537.937       11.552654     -1526.3843      484.69442      7028.1601      13.54458       23.459901      22.118207    
      5500   202.88191     -1537.5302      11.302779     -1526.2274      1508.8441      7037.495       13.550574      23.470283      22.127995    
      6000   209.00148     -1536.433       11.643707     -1524.7893     -11.170894      7052.0417      13.559904      23.486443      22.143231    
      6500   202.50035     -1537.3511      11.281522     -1526.0696     -357.49836      7030.148       13.545857      23.462113      22.120292    
      7000   201.08271     -1537.6798      11.202543     -1526.4773     -2810.696       7081.2552      13.578603      23.51883       22.173766    
      7500   213.87537     -1537.6845      11.915237     -1525.7693      1724.8441      7039.6175      13.551936      23.472642      22.13022     
      8000   206.94683     -1537.6853      11.52924      -1526.156      -1066.337       7074.0143      13.573973      23.510811      22.166205    
      8500   198.91056     -1537.3451      11.08153      -1526.2636      1188.1058      7037.7343      13.550728      23.470549      22.128246    
      9000   205.40737     -1538.2953      11.443475     -1526.8519      1627.1809      7004.5738      13.529412      23.433628      22.093437    
      9500   201.76766     -1537.5915      11.240703     -1526.3508     -200.39346      7067.6404      13.569895      23.503747      22.159546    
     10000   191.2648      -1538.0544      10.655577     -1527.3988     -763.56583      7059.757       13.564848      23.495005      22.151303    
     10500   205.51886     -1537.3472      11.449686     -1525.8975      1711.7552      7016.8013      13.537279      23.447256      22.106285    
     11000   197.36759     -1538.4932      10.99557      -1527.4976     -760.71902      7027.2506      13.543996      23.458889      22.117253    
     11500   196.7595      -1538.398       10.961692     -1527.4363      786.339        7041.6886      13.553265      23.474944      22.13239     
     12000   194.55411     -1537.4134      10.838828     -1526.5746     -1157.0482      7038.3821      13.551144      23.471269      22.128925    
     12500   209.76704     -1537.9611      11.686357     -1526.2748     -1011.6193      7052.31        13.560076      23.486741      22.143512    
     13000   194.55292     -1538.1403      10.838762     -1527.3016      216.5424       7038.7827      13.551401      23.471715      22.129345    
     13500   207.88611     -1538.3361      11.581568     -1526.7546      1305.6155      7017.6868      13.537849      23.448242      22.107215    
     14000   192.41688     -1538.2004      10.719761     -1527.4806      318.954        7019.4612      13.53899       23.450218      22.109078    
     14500   202.85815     -1538.1634      11.301455     -1526.8619     -2264.2988      7061.7501      13.566124      23.497216      22.153388    
     15000   207.4297      -1537.7406      11.556141     -1526.1844     -1665.439       7057.6469      13.563496      23.492664      22.149096    
     15500   209.77086     -1538.1237      11.68657      -1526.4371      1327.0519      7009.524       13.532598      23.439147      22.09864     
     16000   194.73051     -1538.9204      10.848655     -1528.0717     -1838.5713      7035.3038      13.549168      23.467847      22.125698    
     16500   192.07146     -1538.3383      10.700516     -1527.6378     -705.35303      7044.2851      13.554931      23.477829      22.13511     
     17000   208.31649     -1538.67        11.605546     -1527.0645     -3521.3283      7079.7439      13.577637      23.517157      22.172188    
     17500   196.14083     -1539.2139      10.927226     -1528.2867     -1397.2618      7059.2987      13.564554      23.494497      22.150824    
     18000   183.20387     -1539.1539      10.206493     -1528.9474      959.59946      7017.6974      13.537856      23.448254      22.107226    
     18500   204.90211     -1538.9632      11.415326     -1527.5478      2124.8248      7032.202       13.547176      23.464398      22.122446    
     19000   208.25593     -1538.1238      11.602172     -1526.5216      1976.9254      7016.8435      13.537307      23.447303      22.106329    
     19500   210.34661     -1539.3247      11.718646     -1527.6061     -2684.3711      7060.351       13.565228      23.495664      22.151925    
     20000   203.28551     -1539.4261      11.325264     -1528.1009     -1458.294       7032.5044      13.54737       23.464734      22.122763    
     20500   198.42627     -1539.1539      11.05455      -1528.0994     -925.0902       7029.2967      13.54531       23.461166      22.119399    
     21000   209.49304     -1540.0385      11.671092     -1528.3674     -539.80085      7015.4093      13.536384      23.445705      22.104823    
     21500   189.40969     -1540.5494      10.552226     -1529.9972      865.78078      7004.1983      13.52917       23.433209      22.093042    
     22000   193.32404     -1539.9563      10.770299     -1529.186      -159.21951      7023.6065      13.541654      23.454833      22.113429    
     22500   206.03986     -1539.6688      11.478712     -1528.1901     -860.20486      7003.3848      13.528646      23.432302      22.092186    
     23000   206.87481     -1540.333       11.525228     -1528.8078     -45.857528      7023.0455      13.541294      23.454209      22.11284     
     23500   209.59611     -1539.943       11.676835     -1528.2662     -150.90031      7039.7626      13.55203       23.472804      22.130372    
     24000   192.30874     -1539.9225      10.713736     -1529.2088      2217.4125      6997.658       13.524957      23.425913      22.086163    
     24500   196.53265     -1540.3158      10.949055     -1529.3667     -1203.3178      7026.375       13.543433      23.457915      22.116334    
     25000   200.18106     -1539.9674      11.152312     -1528.815      -399.11581      7041.6497      13.55324       23.474901      22.132349    
     25500   198.88672     -1540.5509      11.080202     -1529.4707     -2410.5645      7040.3967      13.552436      23.473509      22.131036    
     26000   206.81286     -1539.4171      11.521777     -1527.8953     -141.94251      7037.9732      13.550881      23.470815      22.128496    
     26500   195.69223     -1540.5113      10.902234     -1529.6091     -1656.6431      7066.0318      13.568865      23.501964      22.157864    
     27000   190.6641      -1540.8304      10.622111     -1530.2083      2060.0684      7012.1612      13.534295      23.442086      22.101411    
     27500   198.62199     -1541.023       11.065454     -1529.9576     -1229.2273      7055.1962      13.561926      23.489945      22.146532    
     28000   203.45537     -1541.0834      11.334727     -1529.7486      174.20513      7021.8405      13.540519      23.452867      22.111576    
     28500   210.16759     -1541.7336      11.708672     -1530.0249     -406.4195       7037.4128      13.550522      23.470192      22.127909    
     29000   199.02795     -1541.3333      11.088071     -1530.2452     -1123.8294      7059.763       13.564851      23.495012      22.15131     
     29500   217.27271     -1540.4027      12.104507     -1528.2982      3529.2141      7010.6155      13.5333        23.440364      22.099787    
     30000   191.28041     -1541.6187      10.656446     -1530.9622     -1587.5721      7045.1395      13.555479      23.478778      22.136004    
     30500   204.44058     -1541.4357      11.389614     -1530.0461      3411.3673      6994.1777      13.522715      23.422029      22.082501    
     31000   189.57276     -1541.7044      10.561311     -1531.1431     -998.47581      7039.67        13.55197       23.472701      22.130275    
     31500   202.99015     -1542.259       11.308809     -1530.9502     -629.66279      7026.9192      13.543783      23.45852       22.116905    
     32000   220.48685     -1541.936       12.28357      -1529.6524     -425.59288      7029.5009      13.545442      23.461393      22.119613    
     32500   193.58652     -1542.3816      10.784922     -1531.5967      2710.219       6987.3324      13.518302      23.414386      22.075294    
     33000   205.05584     -1542.9038      11.423891     -1531.4799     -2082.784       7031.6457      13.546819      23.463779      22.121863    
     33500   207.30674     -1543.5589      11.549291     -1532.0096     -1391.9484      7019.8156      13.539218      23.450613      22.10945     
     34000   217.47733     -1544.0497      12.115906     -1531.9338     -1435.5464      6990.9288      13.520621      23.418402      22.079081    
     34500   194.85809     -1543.0353      10.855763     -1532.1795      1749.3936      6971.3651      13.507997      23.396536      22.058466    
     35000   203.51191     -1544.2684      11.337877     -1532.9305      940.18492      7030.5676      13.546127      23.46258       22.120732    
     35500   201.10121     -1543.9227      11.203574     -1532.7192     -460.33636      6989.7039      13.519831      23.417034      22.077792    
     36000   203.34488     -1544.6268      11.328572     -1533.2982     -1044.0106      6989.3629      13.519611      23.416653      22.077432    
     36500   210.44268     -1544.3315      11.723998     -1532.6075      2006.135       6968.7522      13.506309      23.393613      22.05571     
     37000   220.94744     -1544.5277      12.30923      -1532.2185     -654.95202      7026.4611      13.543489      23.458011      22.116424    
     37500   192.49732     -1543.922       10.724242     -1533.1978     -1933.2311      7033.5593      13.548048      23.465907      22.123869    
     38000   204.65818     -1544.8691      11.401737     -1533.4674      577.52772      7000.9592      13.527084      23.429597      22.089636    
     38500   194.2246      -1545.2474      10.82047      -1534.4269      254.20717      7012.6395      13.534603      23.442619      22.101913    
     39000   194.78722     -1544.6234      10.851815     -1533.7716     -1861.616       7007.6582      13.531397      23.437067      22.096679    
     39500   212.68655     -1544.4312      11.849006     -1532.5822     -1052.411       7003.3916      13.52865       23.43231       22.092194    
     40000   192.96457     -1543.2653      10.750273     -1532.515       844.91833      6980.1851      13.513691      23.406399      22.067765    
     40500   207.48733     -1544.6546      11.559352     -1533.0953     -1893.1943      6999.2029      13.525953      23.427637      22.087788    
     41000   199.72155     -1545.5032      11.126712     -1534.3765      150.7392       6983.7518      13.515992      23.410385      22.071523    
     41500   202.63274     -1545.2098      11.288898     -1533.9209      3003.8512      6962.4149      13.502213      23.38652       22.049022    
     42000   209.38658     -1544.7958      11.665162     -1533.1306      634.73805      6950.3115      13.494385      23.37296       22.036238    
     42500   199.65737     -1544.8821      11.123136     -1533.7589     -761.97009      6968.6451      13.50624       23.393493      22.055597    
     43000   202.76629     -1545.8884      11.296338     -1534.592       23.278193      6935.5045      13.484795      23.35635       22.020578    
     43500   202.79032     -1545.7586      11.297676     -1534.4609      689.45376      6966.8348      13.50507       23.391467      22.053687    
     44000   214.25019     -1544.7756      11.936119     -1532.8395      373.20016      6963.9366      13.503197      23.388223      22.050628    
     44500   189.50169     -1545.4694      10.557352     -1534.912       2880.9343      6935.1292      13.484552      23.355929      22.020181    
     45000   185.89238     -1545.4406      10.356273     -1535.0844      2640.3294      6930.9518      13.481844      23.351239      22.015759    
     45500   213.79503     -1544.2703      11.910761     -1532.3596     -29.966003      6983.9205      13.516101      23.410574      22.071701    
     46000   201.24076     -1546.019       11.211349     -1534.8077      221.64284      6943.5219      13.489989      23.365347      22.02906     
     46500   195.7271      -1546.265       10.904176     -1535.3609      3858.2135      6925.1805      13.478101      23.344755      22.009647    
     47000   188.53291     -1546.1914      10.50338      -1535.688      -1367.1873      6956.5246      13.498405      23.379923      22.042803    
     47500   207.66736     -1545.2499      11.569382     -1533.6805      1152.5956      6963.2686      13.502765      23.387475      22.049923    
     48000   202.09822     -1546.9658      11.259118     -1535.7067      555.32723      6963.1034      13.502658      23.387291      22.049749    
     48500   201.91899     -1546.7658      11.249133     -1535.5167      222.39229      6930.9124      13.481818      23.351194      22.015717    
     49000   201.58532     -1546.0156      11.230545     -1534.785       3209.867       6905.3213      13.465205      23.322419      21.988588    
     49500   205.75046     -1546.9059      11.462589     -1535.4433     -872.32507      6976.4456      13.511277      23.402219      22.063823    
     50000   192.52683     -1547.5217      10.725886     -1536.7958      1450.6217      6933.7003      13.483626      23.354325      22.018669    
Loop time of 375.359 on 8 procs for 50000 steps with 432 atoms

Performance: 11.509 ns/day, 2.085 hours/ns, 133.206 timesteps/s, 57.545 katom-step/s
92.5% CPU use with 1 MPI tasks x 8 OpenMP threads

MPI task timing breakdown:
Section |  min time  |  avg time  |  max time  |%varavg| %total
---------------------------------------------------------------
Pair    | 335.6      | 335.6      | 335.6      |   0.0 | 89.41
Neigh   | 0.011829   | 0.011829   | 0.011829   |   0.0 |  0.00
Comm    | 0.32201    | 0.32201    | 0.32201    |   0.0 |  0.09
Output  | 0.005132   | 0.005132   | 0.005132   |   0.0 |  0.00
Modify  | 39.358     | 39.358     | 39.358     |   0.0 | 10.49
Other   |            | 0.06057    |            |       |  0.02

Nlocal:            432 ave         432 max         432 min
Histogram: 1 0 0 0 0 0 0 0 0 0
Nghost:           2321 ave        2321 max        2321 min
Histogram: 1 0 0 0 0 0 0 0 0 0
Neighs:          28617 ave       28617 max       28617 min
Histogram: 1 0 0 0 0 0 0 0 0 0
FullNghs:        57234 ave       57234 max       57234 min
Histogram: 1 0 0 0 0 0 0 0 0 0

Total # of neighbors = 57234
Ave neighs/atom = 132.48611
Neighbor list builds = 14
Dangerous builds = 0

=== FINAL RESULTS: HCP at 200 K ===
Atoms: 432 | PE/atom: -3.5790026725916 eV/atom
WARNING: Detected non-ASCII characters in input. Will try to continue by replacing with ASCII equivalents where known. (src/input.cpp:479)
Volume: 6933.70034977273 …³ | Area: 314.900979139769 ²
==========================================
HCP 200 432 -3.5790026725916 6933.70034977273 13.4836258128672 23.3543249798036 22.0186687533137 314.900979139769
Simulation complete!
Total wall time: 0:08:44
