# FCC structure - OPTIMIZED (smaller supercell)
# Composition: {'Al': 0.5, 'Fe': 0.0, 'Ni': 0.5}
# Generated for Assignment 2 - MM309 (Optimized)

864 atoms
3 atom types

0.0 22.71000000 xlo xhi
0.0 22.71000000 ylo yhi
0.0 22.71000000 zlo zhi

Masses

1 26.9815  # Al
2 55.8450  # Fe
3 58.6934  # Ni

Atoms # atomic

1 3 0.00000000 0.00000000 0.00000000
2 1 1.89250000 1.89250000 0.00000000
3 1 1.89250000 0.00000000 1.89250000
4 3 0.00000000 1.89250000 1.89250000
5 1 0.00000000 0.00000000 3.78500000
6 3 1.89250000 1.89250000 3.78500000
7 1 1.89250000 0.00000000 5.67750000
8 1 0.00000000 1.89250000 5.67750000
9 1 0.00000000 0.00000000 7.57000000
10 1 1.89250000 1.89250000 7.57000000
11 1 1.89250000 0.00000000 9.46250000
12 1 0.00000000 1.89250000 9.46250000
13 1 0.00000000 0.00000000 11.35500000
14 3 1.89250000 1.89250000 11.35500000
15 3 1.89250000 0.00000000 13.24750000
16 3 0.00000000 1.89250000 13.24750000
17 3 0.00000000 0.00000000 15.14000000
18 3 1.89250000 1.89250000 15.14000000
19 1 1.89250000 0.00000000 17.03250000
20 3 0.00000000 1.89250000 17.03250000
21 3 0.00000000 0.00000000 18.92500000
22 1 1.89250000 1.89250000 18.92500000
23 1 1.89250000 0.00000000 20.81750000
24 1 0.00000000 1.89250000 20.81750000
25 1 0.00000000 3.78500000 0.00000000
26 1 1.89250000 5.67750000 0.00000000
27 1 1.89250000 3.78500000 1.89250000
28 3 0.00000000 5.67750000 1.89250000
29 3 0.00000000 3.78500000 3.78500000
30 1 1.89250000 5.67750000 3.78500000
31 1 1.89250000 3.78500000 5.67750000
32 3 0.00000000 5.67750000 5.67750000
33 3 0.00000000 3.78500000 7.57000000
34 1 1.89250000 5.67750000 7.57000000
35 3 1.89250000 3.78500000 9.46250000
36 3 0.00000000 5.67750000 9.46250000
37 1 0.00000000 3.78500000 11.35500000
38 1 1.89250000 5.67750000 11.35500000
39 1 1.89250000 3.78500000 13.24750000
40 1 0.00000000 5.67750000 13.24750000
41 3 0.00000000 3.78500000 15.14000000
42 3 1.89250000 5.67750000 15.14000000
43 1 1.89250000 3.78500000 17.03250000
44 1 0.00000000 5.67750000 17.03250000
45 3 0.00000000 3.78500000 18.92500000
46 3 1.89250000 5.67750000 18.92500000
47 1 1.89250000 3.78500000 20.81750000
48 3 0.00000000 5.67750000 20.81750000
49 3 0.00000000 7.57000000 0.00000000
50 3 1.89250000 9.46250000 0.00000000
51 3 1.89250000 7.57000000 1.89250000
52 1 0.00000000 9.46250000 1.89250000
53 1 0.00000000 7.57000000 3.78500000
54 3 1.89250000 9.46250000 3.78500000
55 3 1.89250000 7.57000000 5.67750000
56 1 0.00000000 9.46250000 5.67750000
57 1 0.00000000 7.57000000 7.57000000
58 3 1.89250000 9.46250000 7.57000000
59 3 1.89250000 7.57000000 9.46250000
60 3 0.00000000 9.46250000 9.46250000
61 3 0.00000000 7.57000000 11.35500000
62 1 1.89250000 9.46250000 11.35500000
63 1 1.89250000 7.57000000 13.24750000
64 3 0.00000000 9.46250000 13.24750000
65 1 0.00000000 7.57000000 15.14000000
66 1 1.89250000 9.46250000 15.14000000
67 3 1.89250000 7.57000000 17.03250000
68 1 0.00000000 9.46250000 17.03250000
69 1 0.00000000 7.57000000 18.92500000
70 1 1.89250000 9.46250000 18.92500000
71 3 1.89250000 7.57000000 20.81750000
72 3 0.00000000 9.46250000 20.81750000
73 1 0.00000000 11.35500000 0.00000000
74 1 1.89250000 13.24750000 0.00000000
75 1 1.89250000 11.35500000 1.89250000
76 3 0.00000000 13.24750000 1.89250000
77 1 0.00000000 11.35500000 3.78500000
78 3 1.89250000 13.24750000 3.78500000
79 3 1.89250000 11.35500000 5.67750000
80 3 0.00000000 13.24750000 5.67750000
81 3 0.00000000 11.35500000 7.57000000
82 1 1.89250000 13.24750000 7.57000000
83 1 1.89250000 11.35500000 9.46250000
84 1 0.00000000 13.24750000 9.46250000
85 3 0.00000000 11.35500000 11.35500000
86 3 1.89250000 13.24750000 11.35500000
87 1 1.89250000 11.35500000 13.24750000
88 3 0.00000000 13.24750000 13.24750000
89 1 0.00000000 11.35500000 15.14000000
90 3 1.89250000 13.24750000 15.14000000
91 3 1.89250000 11.35500000 17.03250000
92 1 0.00000000 13.24750000 17.03250000
93 3 0.00000000 11.35500000 18.92500000
94 3 1.89250000 13.24750000 18.92500000
95 1 1.89250000 11.35500000 20.81750000
96 1 0.00000000 13.24750000 20.81750000
97 1 0.00000000 15.14000000 0.00000000
98 1 1.89250000 17.03250000 0.00000000
99 1 1.89250000 15.14000000 1.89250000
100 3 0.00000000 17.03250000 1.89250000
101 3 0.00000000 15.14000000 3.78500000
102 1 1.89250000 17.03250000 3.78500000
103 1 1.89250000 15.14000000 5.67750000
104 1 0.00000000 17.03250000 5.67750000
105 1 0.00000000 15.14000000 7.57000000
106 1 1.89250000 17.03250000 7.57000000
107 1 1.89250000 15.14000000 9.46250000
108 1 0.00000000 17.03250000 9.46250000
109 1 0.00000000 15.14000000 11.35500000
110 1 1.89250000 17.03250000 11.35500000
111 1 1.89250000 15.14000000 13.24750000
112 3 0.00000000 17.03250000 13.24750000
113 3 0.00000000 15.14000000 15.14000000
114 1 1.89250000 17.03250000 15.14000000
115 3 1.89250000 15.14000000 17.03250000
116 3 0.00000000 17.03250000 17.03250000
117 3 0.00000000 15.14000000 18.92500000
118 1 1.89250000 17.03250000 18.92500000
119 3 1.89250000 15.14000000 20.81750000
120 3 0.00000000 17.03250000 20.81750000
121 1 0.00000000 18.92500000 0.00000000
122 1 1.89250000 20.81750000 0.00000000
123 1 1.89250000 18.92500000 1.89250000
124 3 0.00000000 20.81750000 1.89250000
125 3 0.00000000 18.92500000 3.78500000
126 1 1.89250000 20.81750000 3.78500000
127 1 1.89250000 18.92500000 5.67750000
128 3 0.00000000 20.81750000 5.67750000
129 1 0.00000000 18.92500000 7.57000000
130 3 1.89250000 20.81750000 7.57000000
131 1 1.89250000 18.92500000 9.46250000
132 3 0.00000000 20.81750000 9.46250000
133 1 0.00000000 18.92500000 11.35500000
134 3 1.89250000 20.81750000 11.35500000
135 1 1.89250000 18.92500000 13.24750000
136 1 0.00000000 20.81750000 13.24750000
137 3 0.00000000 18.92500000 15.14000000
138 3 1.89250000 20.81750000 15.14000000
139 3 1.89250000 18.92500000 17.03250000
140 1 0.00000000 20.81750000 17.03250000
141 3 0.00000000 18.92500000 18.92500000
142 1 1.89250000 20.81750000 18.92500000
143 1 1.89250000 18.92500000 20.81750000
144 1 0.00000000 20.81750000 20.81750000
145 3 3.78500000 0.00000000 0.00000000
146 3 5.67750000 1.89250000 0.00000000
147 3 5.67750000 0.00000000 1.89250000
148 1 3.78500000 1.89250000 1.89250000
149 1 3.78500000 0.00000000 3.78500000
150 3 5.67750000 1.89250000 3.78500000
151 3 5.67750000 0.00000000 5.67750000
152 3 3.78500000 1.89250000 5.67750000
153 3 3.78500000 0.00000000 7.57000000
154 1 5.67750000 1.89250000 7.57000000
155 1 5.67750000 0.00000000 9.46250000
156 1 3.78500000 1.89250000 9.46250000
157 3 3.78500000 0.00000000 11.35500000
158 3 5.67750000 1.89250000 11.35500000
159 3 5.67750000 0.00000000 13.24750000
160 1 3.78500000 1.89250000 13.24750000
161 3 3.78500000 0.00000000 15.14000000
162 1 5.67750000 1.89250000 15.14000000
163 1 5.67750000 0.00000000 17.03250000
164 1 3.78500000 1.89250000 17.03250000
165 3 3.78500000 0.00000000 18.92500000
166 3 5.67750000 1.89250000 18.92500000
167 3 5.67750000 0.00000000 20.81750000
168 3 3.78500000 1.89250000 20.81750000
169 3 3.78500000 3.78500000 0.00000000
170 3 5.67750000 5.67750000 0.00000000
171 1 5.67750000 3.78500000 1.89250000
172 1 3.78500000 5.67750000 1.89250000
173 1 3.78500000 3.78500000 3.78500000
174 1 5.67750000 5.67750000 3.78500000
175 1 5.67750000 3.78500000 5.67750000
176 1 3.78500000 5.67750000 5.67750000
177 3 3.78500000 3.78500000 7.57000000
178 3 5.67750000 5.67750000 7.57000000
179 1 5.67750000 3.78500000 9.46250000
180 3 3.78500000 5.67750000 9.46250000
181 1 3.78500000 3.78500000 11.35500000
182 3 5.67750000 5.67750000 11.35500000
183 3 5.67750000 3.78500000 13.24750000
184 3 3.78500000 5.67750000 13.24750000
185 3 3.78500000 3.78500000 15.14000000
186 1 5.67750000 5.67750000 15.14000000
187 3 5.67750000 3.78500000 17.03250000
188 1 3.78500000 5.67750000 17.03250000
189 1 3.78500000 3.78500000 18.92500000
190 3 5.67750000 5.67750000 18.92500000
191 1 5.67750000 3.78500000 20.81750000
192 1 3.78500000 5.67750000 20.81750000
193 1 3.78500000 7.57000000 0.00000000
194 1 5.67750000 9.46250000 0.00000000
195 1 5.67750000 7.57000000 1.89250000
196 3 3.78500000 9.46250000 1.89250000
197 3 3.78500000 7.57000000 3.78500000
198 3 5.67750000 9.46250000 3.78500000
199 3 5.67750000 7.57000000 5.67750000
200 3 3.78500000 9.46250000 5.67750000
201 3 3.78500000 7.57000000 7.57000000
202 3 5.67750000 9.46250000 7.57000000
203 3 5.67750000 7.57000000 9.46250000
204 1 3.78500000 9.46250000 9.46250000
205 1 3.78500000 7.57000000 11.35500000
206 1 5.67750000 9.46250000 11.35500000
207 1 5.67750000 7.57000000 13.24750000
208 1 3.78500000 9.46250000 13.24750000
209 3 3.78500000 7.57000000 15.14000000
210 1 5.67750000 9.46250000 15.14000000
211 1 5.67750000 7.57000000 17.03250000
212 3 3.78500000 9.46250000 17.03250000
213 3 3.78500000 7.57000000 18.92500000
214 1 5.67750000 9.46250000 18.92500000
215 1 5.67750000 7.57000000 20.81750000
216 1 3.78500000 9.46250000 20.81750000
217 3 3.78500000 11.35500000 0.00000000
218 3 5.67750000 13.24750000 0.00000000
219 1 5.67750000 11.35500000 1.89250000
220 3 3.78500000 13.24750000 1.89250000
221 3 3.78500000 11.35500000 3.78500000
222 1 5.67750000 13.24750000 3.78500000
223 3 5.67750000 11.35500000 5.67750000
224 3 3.78500000 13.24750000 5.67750000
225 3 3.78500000 11.35500000 7.57000000
226 1 5.67750000 13.24750000 7.57000000
227 1 5.67750000 11.35500000 9.46250000
228 3 3.78500000 13.24750000 9.46250000
229 3 3.78500000 11.35500000 11.35500000
230 1 5.67750000 13.24750000 11.35500000
231 3 5.67750000 11.35500000 13.24750000
232 3 3.78500000 13.24750000 13.24750000
233 1 3.78500000 11.35500000 15.14000000
234 1 5.67750000 13.24750000 15.14000000
235 1 5.67750000 11.35500000 17.03250000
236 3 3.78500000 13.24750000 17.03250000
237 3 3.78500000 11.35500000 18.92500000
238 3 5.67750000 13.24750000 18.92500000
239 3 5.67750000 11.35500000 20.81750000
240 3 3.78500000 13.24750000 20.81750000
241 3 3.78500000 15.14000000 0.00000000
242 3 5.67750000 17.03250000 0.00000000
243 3 5.67750000 15.14000000 1.89250000
244 3 3.78500000 17.03250000 1.89250000
245 3 3.78500000 15.14000000 3.78500000
246 3 5.67750000 17.03250000 3.78500000
247 3 5.67750000 15.14000000 5.67750000
248 3 3.78500000 17.03250000 5.67750000
249 3 3.78500000 15.14000000 7.57000000
250 3 5.67750000 17.03250000 7.57000000
251 1 5.67750000 15.14000000 9.46250000
252 1 3.78500000 17.03250000 9.46250000
253 3 3.78500000 15.14000000 11.35500000
254 1 5.67750000 17.03250000 11.35500000
255 3 5.67750000 15.14000000 13.24750000
256 3 3.78500000 17.03250000 13.24750000
257 3 3.78500000 15.14000000 15.14000000
258 3 5.67750000 17.03250000 15.14000000
259 3 5.67750000 15.14000000 17.03250000
260 1 3.78500000 17.03250000 17.03250000
261 3 3.78500000 15.14000000 18.92500000
262 3 5.67750000 17.03250000 18.92500000
263 1 5.67750000 15.14000000 20.81750000
264 3 3.78500000 17.03250000 20.81750000
265 1 3.78500000 18.92500000 0.00000000
266 3 5.67750000 20.81750000 0.00000000
267 3 5.67750000 18.92500000 1.89250000
268 1 3.78500000 20.81750000 1.89250000
269 3 3.78500000 18.92500000 3.78500000
270 1 5.67750000 20.81750000 3.78500000
271 3 5.67750000 18.92500000 5.67750000
272 1 3.78500000 20.81750000 5.67750000
273 3 3.78500000 18.92500000 7.57000000
274 3 5.67750000 20.81750000 7.57000000
275 3 5.67750000 18.92500000 9.46250000
276 1 3.78500000 20.81750000 9.46250000
277 1 3.78500000 18.92500000 11.35500000
278 1 5.67750000 20.81750000 11.35500000
279 3 5.67750000 18.92500000 13.24750000
280 1 3.78500000 20.81750000 13.24750000
281 3 3.78500000 18.92500000 15.14000000
282 1 5.67750000 20.81750000 15.14000000
283 3 5.67750000 18.92500000 17.03250000
284 1 3.78500000 20.81750000 17.03250000
285 3 3.78500000 18.92500000 18.92500000
286 1 5.67750000 20.81750000 18.92500000
287 1 5.67750000 18.92500000 20.81750000
288 3 3.78500000 20.81750000 20.81750000
289 1 7.57000000 0.00000000 0.00000000
290 1 9.46250000 1.89250000 0.00000000
291 1 9.46250000 0.00000000 1.89250000
292 3 7.57000000 1.89250000 1.89250000
293 3 7.57000000 0.00000000 3.78500000
294 1 9.46250000 1.89250000 3.78500000
295 3 9.46250000 0.00000000 5.67750000
296 3 7.57000000 1.89250000 5.67750000
297 3 7.57000000 0.00000000 7.57000000
298 1 9.46250000 1.89250000 7.57000000
299 1 9.46250000 0.00000000 9.46250000
300 1 7.57000000 1.89250000 9.46250000
301 1 7.57000000 0.00000000 11.35500000
302 3 9.46250000 1.89250000 11.35500000
303 3 9.46250000 0.00000000 13.24750000
304 3 7.57000000 1.89250000 13.24750000
305 3 7.57000000 0.00000000 15.14000000
306 3 9.46250000 1.89250000 15.14000000
307 1 9.46250000 0.00000000 17.03250000
308 3 7.57000000 1.89250000 17.03250000
309 3 7.57000000 0.00000000 18.92500000
310 3 9.46250000 1.89250000 18.92500000
311 1 9.46250000 0.00000000 20.81750000
312 1 7.57000000 1.89250000 20.81750000
313 1 7.57000000 3.78500000 0.00000000
314 1 9.46250000 5.67750000 0.00000000
315 1 9.46250000 3.78500000 1.89250000
316 1 7.57000000 5.67750000 1.89250000
317 3 7.57000000 3.78500000 3.78500000
318 3 9.46250000 5.67750000 3.78500000
319 1 9.46250000 3.78500000 5.67750000
320 1 7.57000000 5.67750000 5.67750000
321 1 7.57000000 3.78500000 7.57000000
322 1 9.46250000 5.67750000 7.57000000
323 1 9.46250000 3.78500000 9.46250000
324 3 7.57000000 5.67750000 9.46250000
325 3 7.57000000 3.78500000 11.35500000
326 1 9.46250000 5.67750000 11.35500000
327 3 9.46250000 3.78500000 13.24750000
328 1 7.57000000 5.67750000 13.24750000
329 1 7.57000000 3.78500000 15.14000000
330 1 9.46250000 5.67750000 15.14000000
331 1 9.46250000 3.78500000 17.03250000
332 1 7.57000000 5.67750000 17.03250000
333 3 7.57000000 3.78500000 18.92500000
334 3 9.46250000 5.67750000 18.92500000
335 1 9.46250000 3.78500000 20.81750000
336 1 7.57000000 5.67750000 20.81750000
337 1 7.57000000 7.57000000 0.00000000
338 1 9.46250000 9.46250000 0.00000000
339 1 9.46250000 7.57000000 1.89250000
340 1 7.57000000 9.46250000 1.89250000
341 1 7.57000000 7.57000000 3.78500000
342 3 9.46250000 9.46250000 3.78500000
343 3 9.46250000 7.57000000 5.67750000
344 1 7.57000000 9.46250000 5.67750000
345 1 7.57000000 7.57000000 7.57000000
346 3 9.46250000 9.46250000 7.57000000
347 1 9.46250000 7.57000000 9.46250000
348 1 7.57000000 9.46250000 9.46250000
349 1 7.57000000 7.57000000 11.35500000
350 1 9.46250000 9.46250000 11.35500000
351 3 9.46250000 7.57000000 13.24750000
352 3 7.57000000 9.46250000 13.24750000
353 3 7.57000000 7.57000000 15.14000000
354 1 9.46250000 9.46250000 15.14000000
355 1 9.46250000 7.57000000 17.03250000
356 3 7.57000000 9.46250000 17.03250000
357 3 7.57000000 7.57000000 18.92500000
358 1 9.46250000 9.46250000 18.92500000
359 3 9.46250000 7.57000000 20.81750000
360 1 7.57000000 9.46250000 20.81750000
361 1 7.57000000 11.35500000 0.00000000
362 3 9.46250000 13.24750000 0.00000000
363 3 9.46250000 11.35500000 1.89250000
364 1 7.57000000 13.24750000 1.89250000
365 1 7.57000000 11.35500000 3.78500000
366 1 9.46250000 13.24750000 3.78500000
367 1 9.46250000 11.35500000 5.67750000
368 1 7.57000000 13.24750000 5.67750000
369 1 7.57000000 11.35500000 7.57000000
370 3 9.46250000 13.24750000 7.57000000
371 1 9.46250000 11.35500000 9.46250000
372 1 7.57000000 13.24750000 9.46250000
373 1 7.57000000 11.35500000 11.35500000
374 3 9.46250000 13.24750000 11.35500000
375 3 9.46250000 11.35500000 13.24750000
376 1 7.57000000 13.24750000 13.24750000
377 3 7.57000000 11.35500000 15.14000000
378 3 9.46250000 13.24750000 15.14000000
379 3 9.46250000 11.35500000 17.03250000
380 1 7.57000000 13.24750000 17.03250000
381 3 7.57000000 11.35500000 18.92500000
382 3 9.46250000 13.24750000 18.92500000
383 3 9.46250000 11.35500000 20.81750000
384 3 7.57000000 13.24750000 20.81750000
385 1 7.57000000 15.14000000 0.00000000
386 3 9.46250000 17.03250000 0.00000000
387 3 9.46250000 15.14000000 1.89250000
388 3 7.57000000 17.03250000 1.89250000
389 3 7.57000000 15.14000000 3.78500000
390 1 9.46250000 17.03250000 3.78500000
391 1 9.46250000 15.14000000 5.67750000
392 3 7.57000000 17.03250000 5.67750000
393 3 7.57000000 15.14000000 7.57000000
394 1 9.46250000 17.03250000 7.57000000
395 3 9.46250000 15.14000000 9.46250000
396 1 7.57000000 17.03250000 9.46250000
397 1 7.57000000 15.14000000 11.35500000
398 1 9.46250000 17.03250000 11.35500000
399 3 9.46250000 15.14000000 13.24750000
400 3 7.57000000 17.03250000 13.24750000
401 1 7.57000000 15.14000000 15.14000000
402 1 9.46250000 17.03250000 15.14000000
403 3 9.46250000 15.14000000 17.03250000
404 3 7.57000000 17.03250000 17.03250000
405 1 7.57000000 15.14000000 18.92500000
406 1 9.46250000 17.03250000 18.92500000
407 3 9.46250000 15.14000000 20.81750000
408 1 7.57000000 17.03250000 20.81750000
409 1 7.57000000 18.92500000 0.00000000
410 3 9.46250000 20.81750000 0.00000000
411 1 9.46250000 18.92500000 1.89250000
412 3 7.57000000 20.81750000 1.89250000
413 3 7.57000000 18.92500000 3.78500000
414 1 9.46250000 20.81750000 3.78500000
415 1 9.46250000 18.92500000 5.67750000
416 1 7.57000000 20.81750000 5.67750000
417 1 7.57000000 18.92500000 7.57000000
418 3 9.46250000 20.81750000 7.57000000
419 1 9.46250000 18.92500000 9.46250000
420 1 7.57000000 20.81750000 9.46250000
421 3 7.57000000 18.92500000 11.35500000
422 1 9.46250000 20.81750000 11.35500000
423 3 9.46250000 18.92500000 13.24750000
424 1 7.57000000 20.81750000 13.24750000
425 3 7.57000000 18.92500000 15.14000000
426 3 9.46250000 20.81750000 15.14000000
427 3 9.46250000 18.92500000 17.03250000
428 1 7.57000000 20.81750000 17.03250000
429 1 7.57000000 18.92500000 18.92500000
430 3 9.46250000 20.81750000 18.92500000
431 1 9.46250000 18.92500000 20.81750000
432 3 7.57000000 20.81750000 20.81750000
433 3 11.35500000 0.00000000 0.00000000
434 1 13.24750000 1.89250000 0.00000000
435 1 13.24750000 0.00000000 1.89250000
436 1 11.35500000 1.89250000 1.89250000
437 1 11.35500000 0.00000000 3.78500000
438 1 13.24750000 1.89250000 3.78500000
439 1 13.24750000 0.00000000 5.67750000
440 1 11.35500000 1.89250000 5.67750000
441 3 11.35500000 0.00000000 7.57000000
442 1 13.24750000 1.89250000 7.57000000
443 1 13.24750000 0.00000000 9.46250000
444 1 11.35500000 1.89250000 9.46250000
445 3 11.35500000 0.00000000 11.35500000
446 1 13.24750000 1.89250000 11.35500000
447 1 13.24750000 0.00000000 13.24750000
448 1 11.35500000 1.89250000 13.24750000
449 1 11.35500000 0.00000000 15.14000000
450 3 13.24750000 1.89250000 15.14000000
451 1 13.24750000 0.00000000 17.03250000
452 1 11.35500000 1.89250000 17.03250000
453 1 11.35500000 0.00000000 18.92500000
454 1 13.24750000 1.89250000 18.92500000
455 3 13.24750000 0.00000000 20.81750000
456 3 11.35500000 1.89250000 20.81750000
457 1 11.35500000 3.78500000 0.00000000
458 3 13.24750000 5.67750000 0.00000000
459 3 13.24750000 3.78500000 1.89250000
460 1 11.35500000 5.67750000 1.89250000
461 3 11.35500000 3.78500000 3.78500000
462 1 13.24750000 5.67750000 3.78500000
463 1 13.24750000 3.78500000 5.67750000
464 3 11.35500000 5.67750000 5.67750000
465 1 11.35500000 3.78500000 7.57000000
466 1 13.24750000 5.67750000 7.57000000
467 3 13.24750000 3.78500000 9.46250000
468 3 11.35500000 5.67750000 9.46250000
469 1 11.35500000 3.78500000 11.35500000
470 1 13.24750000 5.67750000 11.35500000
471 3 13.24750000 3.78500000 13.24750000
472 1 11.35500000 5.67750000 13.24750000
473 1 11.35500000 3.78500000 15.14000000
474 3 13.24750000 5.67750000 15.14000000
475 3 13.24750000 3.78500000 17.03250000
476 1 11.35500000 5.67750000 17.03250000
477 3 11.35500000 3.78500000 18.92500000
478 3 13.24750000 5.67750000 18.92500000
479 3 13.24750000 3.78500000 20.81750000
480 1 11.35500000 5.67750000 20.81750000
481 1 11.35500000 7.57000000 0.00000000
482 3 13.24750000 9.46250000 0.00000000
483 1 13.24750000 7.57000000 1.89250000
484 1 11.35500000 9.46250000 1.89250000
485 3 11.35500000 7.57000000 3.78500000
486 3 13.24750000 9.46250000 3.78500000
487 3 13.24750000 7.57000000 5.67750000
488 3 11.35500000 9.46250000 5.67750000
489 1 11.35500000 7.57000000 7.57000000
490 3 13.24750000 9.46250000 7.57000000
491 3 13.24750000 7.57000000 9.46250000
492 3 11.35500000 9.46250000 9.46250000
493 3 11.35500000 7.57000000 11.35500000
494 1 13.24750000 9.46250000 11.35500000
495 1 13.24750000 7.57000000 13.24750000
496 3 11.35500000 9.46250000 13.24750000
497 1 11.35500000 7.57000000 15.14000000
498 1 13.24750000 9.46250000 15.14000000
499 1 13.24750000 7.57000000 17.03250000
500 3 11.35500000 9.46250000 17.03250000
501 3 11.35500000 7.57000000 18.92500000
502 3 13.24750000 9.46250000 18.92500000
503 3 13.24750000 7.57000000 20.81750000
504 1 11.35500000 9.46250000 20.81750000
505 3 11.35500000 11.35500000 0.00000000
506 1 13.24750000 13.24750000 0.00000000
507 3 13.24750000 11.35500000 1.89250000
508 1 11.35500000 13.24750000 1.89250000
509 1 11.35500000 11.35500000 3.78500000
510 3 13.24750000 13.24750000 3.78500000
511 1 13.24750000 11.35500000 5.67750000
512 1 11.35500000 13.24750000 5.67750000
513 3 11.35500000 11.35500000 7.57000000
514 3 13.24750000 13.24750000 7.57000000
515 3 13.24750000 11.35500000 9.46250000
516 1 11.35500000 13.24750000 9.46250000
517 3 11.35500000 11.35500000 11.35500000
518 1 13.24750000 13.24750000 11.35500000
519 3 13.24750000 11.35500000 13.24750000
520 1 11.35500000 13.24750000 13.24750000
521 3 11.35500000 11.35500000 15.14000000
522 3 13.24750000 13.24750000 15.14000000
523 3 13.24750000 11.35500000 17.03250000
524 3 11.35500000 13.24750000 17.03250000
525 1 11.35500000 11.35500000 18.92500000
526 1 13.24750000 13.24750000 18.92500000
527 3 13.24750000 11.35500000 20.81750000
528 3 11.35500000 13.24750000 20.81750000
529 1 11.35500000 15.14000000 0.00000000
530 3 13.24750000 17.03250000 0.00000000
531 3 13.24750000 15.14000000 1.89250000
532 3 11.35500000 17.03250000 1.89250000
533 3 11.35500000 15.14000000 3.78500000
534 1 13.24750000 17.03250000 3.78500000
535 1 13.24750000 15.14000000 5.67750000
536 3 11.35500000 17.03250000 5.67750000
537 3 11.35500000 15.14000000 7.57000000
538 1 13.24750000 17.03250000 7.57000000
539 3 13.24750000 15.14000000 9.46250000
540 3 11.35500000 17.03250000 9.46250000
541 1 11.35500000 15.14000000 11.35500000
542 3 13.24750000 17.03250000 11.35500000
543 1 13.24750000 15.14000000 13.24750000
544 3 11.35500000 17.03250000 13.24750000
545 1 11.35500000 15.14000000 15.14000000
546 3 13.24750000 17.03250000 15.14000000
547 1 13.24750000 15.14000000 17.03250000
548 1 11.35500000 17.03250000 17.03250000
549 1 11.35500000 15.14000000 18.92500000
550 3 13.24750000 17.03250000 18.92500000
551 1 13.24750000 15.14000000 20.81750000
552 3 11.35500000 17.03250000 20.81750000
553 1 11.35500000 18.92500000 0.00000000
554 3 13.24750000 20.81750000 0.00000000
555 3 13.24750000 18.92500000 1.89250000
556 1 11.35500000 20.81750000 1.89250000
557 3 11.35500000 18.92500000 3.78500000
558 3 13.24750000 20.81750000 3.78500000
559 1 13.24750000 18.92500000 5.67750000
560 1 11.35500000 20.81750000 5.67750000
561 1 11.35500000 18.92500000 7.57000000
562 3 13.24750000 20.81750000 7.57000000
563 1 13.24750000 18.92500000 9.46250000
564 3 11.35500000 20.81750000 9.46250000
565 1 11.35500000 18.92500000 11.35500000
566 3 13.24750000 20.81750000 11.35500000
567 3 13.24750000 18.92500000 13.24750000
568 1 11.35500000 20.81750000 13.24750000
569 1 11.35500000 18.92500000 15.14000000
570 1 13.24750000 20.81750000 15.14000000
571 3 13.24750000 18.92500000 17.03250000
572 1 11.35500000 20.81750000 17.03250000
573 3 11.35500000 18.92500000 18.92500000
574 1 13.24750000 20.81750000 18.92500000
575 3 13.24750000 18.92500000 20.81750000
576 3 11.35500000 20.81750000 20.81750000
577 1 15.14000000 0.00000000 0.00000000
578 3 17.03250000 1.89250000 0.00000000
579 1 17.03250000 0.00000000 1.89250000
580 3 15.14000000 1.89250000 1.89250000
581 3 15.14000000 0.00000000 3.78500000
582 1 17.03250000 1.89250000 3.78500000
583 1 17.03250000 0.00000000 5.67750000
584 3 15.14000000 1.89250000 5.67750000
585 1 15.14000000 0.00000000 7.57000000
586 3 17.03250000 1.89250000 7.57000000
587 1 17.03250000 0.00000000 9.46250000
588 1 15.14000000 1.89250000 9.46250000
589 3 15.14000000 0.00000000 11.35500000
590 3 17.03250000 1.89250000 11.35500000
591 3 17.03250000 0.00000000 13.24750000
592 1 15.14000000 1.89250000 13.24750000
593 3 15.14000000 0.00000000 15.14000000
594 3 17.03250000 1.89250000 15.14000000
595 1 17.03250000 0.00000000 17.03250000
596 1 15.14000000 1.89250000 17.03250000
597 3 15.14000000 0.00000000 18.92500000
598 3 17.03250000 1.89250000 18.92500000
599 1 17.03250000 0.00000000 20.81750000
600 3 15.14000000 1.89250000 20.81750000
601 3 15.14000000 3.78500000 0.00000000
602 3 17.03250000 5.67750000 0.00000000
603 3 17.03250000 3.78500000 1.89250000
604 3 15.14000000 5.67750000 1.89250000
605 1 15.14000000 3.78500000 3.78500000
606 1 17.03250000 5.67750000 3.78500000
607 1 17.03250000 3.78500000 5.67750000
608 1 15.14000000 5.67750000 5.67750000
609 1 15.14000000 3.78500000 7.57000000
610 1 17.03250000 5.67750000 7.57000000
611 1 17.03250000 3.78500000 9.46250000
612 3 15.14000000 5.67750000 9.46250000
613 1 15.14000000 3.78500000 11.35500000
614 1 17.03250000 5.67750000 11.35500000
615 1 17.03250000 3.78500000 13.24750000
616 1 15.14000000 5.67750000 13.24750000
617 3 15.14000000 3.78500000 15.14000000
618 3 17.03250000 5.67750000 15.14000000
619 1 17.03250000 3.78500000 17.03250000
620 1 15.14000000 5.67750000 17.03250000
621 1 15.14000000 3.78500000 18.92500000
622 1 17.03250000 5.67750000 18.92500000
623 3 17.03250000 3.78500000 20.81750000
624 3 15.14000000 5.67750000 20.81750000
625 3 15.14000000 7.57000000 0.00000000
626 1 17.03250000 9.46250000 0.00000000
627 1 17.03250000 7.57000000 1.89250000
628 1 15.14000000 9.46250000 1.89250000
629 3 15.14000000 7.57000000 3.78500000
630 1 17.03250000 9.46250000 3.78500000
631 1 17.03250000 7.57000000 5.67750000
632 1 15.14000000 9.46250000 5.67750000
633 1 15.14000000 7.57000000 7.57000000
634 3 17.03250000 9.46250000 7.57000000
635 3 17.03250000 7.57000000 9.46250000
636 3 15.14000000 9.46250000 9.46250000
637 3 15.14000000 7.57000000 11.35500000
638 3 17.03250000 9.46250000 11.35500000
639 3 17.03250000 7.57000000 13.24750000
640 3 15.14000000 9.46250000 13.24750000
641 3 15.14000000 7.57000000 15.14000000
642 1 17.03250000 9.46250000 15.14000000
643 3 17.03250000 7.57000000 17.03250000
644 1 15.14000000 9.46250000 17.03250000
645 3 15.14000000 7.57000000 18.92500000
646 3 17.03250000 9.46250000 18.92500000
647 1 17.03250000 7.57000000 20.81750000
648 1 15.14000000 9.46250000 20.81750000
649 3 15.14000000 11.35500000 0.00000000
650 3 17.03250000 13.24750000 0.00000000
651 1 17.03250000 11.35500000 1.89250000
652 1 15.14000000 13.24750000 1.89250000
653 3 15.14000000 11.35500000 3.78500000
654 1 17.03250000 13.24750000 3.78500000
655 3 17.03250000 11.35500000 5.67750000
656 3 15.14000000 13.24750000 5.67750000
657 1 15.14000000 11.35500000 7.57000000
658 3 17.03250000 13.24750000 7.57000000
659 3 17.03250000 11.35500000 9.46250000
660 1 15.14000000 13.24750000 9.46250000
661 3 15.14000000 11.35500000 11.35500000
662 1 17.03250000 13.24750000 11.35500000
663 1 17.03250000 11.35500000 13.24750000
664 3 15.14000000 13.24750000 13.24750000
665 3 15.14000000 11.35500000 15.14000000
666 1 17.03250000 13.24750000 15.14000000
667 1 17.03250000 11.35500000 17.03250000
668 3 15.14000000 13.24750000 17.03250000
669 1 15.14000000 11.35500000 18.92500000
670 3 17.03250000 13.24750000 18.92500000
671 1 17.03250000 11.35500000 20.81750000
672 1 15.14000000 13.24750000 20.81750000
673 1 15.14000000 15.14000000 0.00000000
674 1 17.03250000 17.03250000 0.00000000
675 1 17.03250000 15.14000000 1.89250000
676 1 15.14000000 17.03250000 1.89250000
677 1 15.14000000 15.14000000 3.78500000
678 1 17.03250000 17.03250000 3.78500000
679 3 17.03250000 15.14000000 5.67750000
680 3 15.14000000 17.03250000 5.67750000
681 3 15.14000000 15.14000000 7.57000000
682 3 17.03250000 17.03250000 7.57000000
683 1 17.03250000 15.14000000 9.46250000
684 1 15.14000000 17.03250000 9.46250000
685 1 15.14000000 15.14000000 11.35500000
686 1 17.03250000 17.03250000 11.35500000
687 1 17.03250000 15.14000000 13.24750000
688 3 15.14000000 17.03250000 13.24750000
689 1 15.14000000 15.14000000 15.14000000
690 1 17.03250000 17.03250000 15.14000000
691 1 17.03250000 15.14000000 17.03250000
692 3 15.14000000 17.03250000 17.03250000
693 1 15.14000000 15.14000000 18.92500000
694 1 17.03250000 17.03250000 18.92500000
695 3 17.03250000 15.14000000 20.81750000
696 1 15.14000000 17.03250000 20.81750000
697 3 15.14000000 18.92500000 0.00000000
698 3 17.03250000 20.81750000 0.00000000
699 1 17.03250000 18.92500000 1.89250000
700 3 15.14000000 20.81750000 1.89250000
701 1 15.14000000 18.92500000 3.78500000
702 3 17.03250000 20.81750000 3.78500000
703 1 17.03250000 18.92500000 5.67750000
704 3 15.14000000 20.81750000 5.67750000
705 3 15.14000000 18.92500000 7.57000000
706 1 17.03250000 20.81750000 7.57000000
707 1 17.03250000 18.92500000 9.46250000
708 1 15.14000000 20.81750000 9.46250000
709 1 15.14000000 18.92500000 11.35500000
710 1 17.03250000 20.81750000 11.35500000
711 3 17.03250000 18.92500000 13.24750000
712 1 15.14000000 20.81750000 13.24750000
713 3 15.14000000 18.92500000 15.14000000
714 3 17.03250000 20.81750000 15.14000000
715 1 17.03250000 18.92500000 17.03250000
716 3 15.14000000 20.81750000 17.03250000
717 3 15.14000000 18.92500000 18.92500000
718 3 17.03250000 20.81750000 18.92500000
719 3 17.03250000 18.92500000 20.81750000
720 1 15.14000000 20.81750000 20.81750000
721 1 18.92500000 0.00000000 0.00000000
722 1 20.81750000 1.89250000 0.00000000
723 3 20.81750000 0.00000000 1.89250000
724 1 18.92500000 1.89250000 1.89250000
725 3 18.92500000 0.00000000 3.78500000
726 3 20.81750000 1.89250000 3.78500000
727 3 20.81750000 0.00000000 5.67750000
728 3 18.92500000 1.89250000 5.67750000
729 3 18.92500000 0.00000000 7.57000000
730 1 20.81750000 1.89250000 7.57000000
731 1 20.81750000 0.00000000 9.46250000
732 1 18.92500000 1.89250000 9.46250000
733 1 18.92500000 0.00000000 11.35500000
734 1 20.81750000 1.89250000 11.35500000
735 1 20.81750000 0.00000000 13.24750000
736 3 18.92500000 1.89250000 13.24750000
737 3 18.92500000 0.00000000 15.14000000