LAMMPS (10 Sep 2025)
  using 8 OpenMP thread(s) per MPI task
Loaded 1 plugins from C:\Users\kumar\AppData\Local\LAMMPS 64-bit 10Sep2025\plugins
using multi-threaded neighbor list subroutines
Reading data file ...
  orthogonal box = (0 0 0) to (15.901417 27.542063 25.966906)
  1 by 1 by 1 MPI processor grid
  reading atoms ...
  432 atoms
  read_data CPU = 0.004 seconds
=== STAGE 1: Energy Minimization ===
Switching to 'neigh_modify every 1 delay 0 check yes' setting during minimization
No /omp style for force computation currently active
Neighbor list info ...
  update: every = 1 steps, delay = 0 steps, check = yes
  max neighbors/atom: 4000, page size: 100000
  master list distance cutoff = 8
  ghost atom cutoff = 8
  binsize = 4, bins = 4 7 7
  2 neighbor lists, perpetual/occasional/extra = 2 0 0
  (1) pair meam, perpetual
      attributes: full, newton on, omp
      pair build: full/bin/atomonly/omp
      stencil: full/bin/3d
      bin: standard
  (2) pair meam, perpetual, half/full from (1)
      attributes: half, newton on, omp
      pair build: halffull/newton/omp
      stencil: none
      bin: none
Setting up cg style minimization ...
  Unit style    : metal
  Current step  : 0
Per MPI rank memory allocation (min/avg/max) = 19.38 | 19.38 | 19.38 Mbytes
   Step          Temp          PotEng         KinEng         TotEng         Press          Volume           Lx             Ly             Lz      
         0   0             -1142.9791      0             -1142.9791     -72580.319      11372.41       15.901417      27.542063      25.966906    
       146   0             -1436.4562      0             -1436.4562     -52537.823      11372.41       15.901417      27.542063      25.966906    
Loop time of 2.28104 on 8 procs for 146 steps with 432 atoms

99.3% CPU use with 1 MPI tasks x 8 OpenMP threads

Minimization stats:
  Stopping criterion = energy tolerance
  Energy initial, next-to-last, final = 
      -1142.9791119636  -1436.45559908323  -1436.45617518389
  Force two-norm initial, final = 26.206828 8.9009153
  Force max component initial, final = 4.6923109 2.6039103
  Final line search alpha, max atom move = 0.030637949 0.079778471
  Iterations, force evaluations = 146 348

MPI task timing breakdown:
Section |  min time  |  avg time  |  max time  |%varavg| %total
---------------------------------------------------------------
Pair    | 2.2196     | 2.2196     | 2.2196     |   0.0 | 97.30
Neigh   | 0.002766   | 0.002766   | 0.002766   |   0.0 |  0.12
Comm    | 0.004819   | 0.004819   | 0.004819   |   0.0 |  0.21
Output  | 0          | 0          | 0          |   0.0 |  0.00
Modify  | 0.047767   | 0.047767   | 0.047767   |   0.0 |  2.09
Other   |            | 0.006132   |            |       |  0.27

Nlocal:            432 ave         432 max         432 min
Histogram: 1 0 0 0 0 0 0 0 0 0
Nghost:           1797 ave        1797 max        1797 min
Histogram: 1 0 0 0 0 0 0 0 0 0
Neighs:          17399 ave       17399 max       17399 min
Histogram: 1 0 0 0 0 0 0 0 0 0
FullNghs:        34798 ave       34798 max       34798 min
Histogram: 1 0 0 0 0 0 0 0 0 0

Total # of neighbors = 34798
Ave neighs/atom = 80.550926
Neighbor list builds = 4
Dangerous builds = 0
Minimized PE/atom: -3.3251300351479 eV/atom
=== STAGE 2: NPT Equilibration at 650 K ===
No /omp style for force computation currently active
Setting up Verlet run ...
  Unit style    : metal
  Current step  : 0
  Time step     : 0.002
Per MPI rank memory allocation (min/avg/max) = 18.25 | 18.25 | 18.25 Mbytes
   Step          Temp          PotEng         KinEng         TotEng         Press          Volume           Lx             Ly             Lz      
         0   650           -1436.4562      36.21223      -1400.2439     -49136.703      11372.41       15.901417      27.542063      25.966906    
       500   1011.2661     -1598.4894      56.338771     -1542.1507     -6051.5132      7063.2046      13.567055      23.498829      22.154909    
      1000   674.58465     -1663.093       37.581868     -1625.5111     -303.49476      6343.0996      13.089373      22.671459      21.374857    
      1500   651.15057     -1673.4754      36.276329     -1637.1991     -188.72234      6244.1372      13.020944      22.552937      21.263113    
      2000   636.06798     -1682.02        35.436061     -1646.584       1355.0573      6242.1666      13.019574      22.550564      21.260876    
      2500   648.90577     -1685.8937      36.151269     -1649.7424      2017.9727      6198.8257      12.989372      22.498252      21.211555    
      3000   619.49508     -1688.2397      34.512766     -1653.727       580.77472      6216.2588      13.001537      22.519323      21.231421    
      3500   650.50371     -1691.8895      36.240292     -1655.6492     -2644.5639      6244.9367      13.0215        22.5539        21.264021    
      4000   728.03289     -1696.7786      40.55953      -1656.2191      2721.0631      6174.558       12.972399      22.468854      21.183839    
      4500   637.86498     -1701.8009      35.536174     -1666.2648     -916.28393      6175.9252      12.973356      22.470512      21.185402    
      5000   658.54541     -1703.8566      36.688304     -1667.1683      4536.985       6112.5934      12.928858      22.393439      21.112737    
      5500   665.58875     -1704.4014      37.080696     -1667.3207     -1256.5879      6123.6874      12.936675      22.406979      21.125502    
      6000   654.21034     -1708.331       36.446792     -1671.8842      2237.7501      6134.5642      12.94433       22.420237      21.138002    
      6500   660.1578      -1708.701       36.778132     -1671.9229     -1004.0081      6163.6104      12.964728      22.455567      21.171311    
      7000   693.22601     -1711.1831      38.620399     -1672.5627      1206.6058      6090.6858      12.913394      22.366654      21.087484    
      7500   636.26461     -1713.0608      35.447015     -1677.6138     -940.54928      6162.8892      12.964222      22.454691      21.170486    
      8000   679.36553     -1709.9412      37.848216     -1672.093       1214.3972      6157.8603      12.960695      22.448582      21.164726    
      8500   650.32676     -1713.7292      36.230434     -1677.4988     -653.58672      6150.295       12.955385      22.439385      21.156055    
      9000   671.47333     -1713.4835      37.408533     -1676.075      -3280.5998      6148.6177      12.954207      22.437345      21.154131    
      9500   640.31005     -1710.7963      35.672392     -1675.1239     -1830.6937      6140.6977      12.948643      22.427707      21.145045    
     10000   679.91892     -1713.6079      37.879046     -1675.7288     -5738.4646      6144.9212      12.951611      22.432847      21.149891    
     10500   632.90657     -1712.2788      35.259935     -1677.0189      4405.8491      6071.1178      12.89955       22.342676      21.064877    
     11000   655.50017     -1714.4881      36.51865      -1677.9694     -7512.3021      6163.3507      12.964545      22.455251      21.171014    
     11500   669.7268      -1712.4363      37.311232     -1675.125       1.1449324      6151.3417      12.95612       22.440658      21.157255    
     12000   672.51497     -1711.9357      37.466564     -1674.4692     -5953.5744      6173.394       12.971584      22.467442      21.182507    
     12500   631.43365     -1714.0272      35.177877     -1678.8493      1847.6097      6089.4171      12.912497      22.365101      21.08602     
     13000   629.11996     -1713.8016      35.048979     -1678.7526     -4171.3329      6139.0013      12.94745       22.425641      21.143097    
     13500   682.23937     -1716.7453      38.008321     -1678.737      -1067.3076      6118.7352      12.933187      22.400937      21.119806    
     14000   577.52004     -1719.7282      32.17429      -1687.5539     -3721.5608      6076.7581      12.903543      22.349593      21.071398    
     14500   666.43627     -1714.8702      37.127913     -1677.7423      2360.5734      6101.1551      12.920789      22.379462      21.09956     
     15000   630.27275     -1717.0485      35.113202     -1681.9353     -5180.2203      6131.1915      12.941957      22.416128      21.134128    
     15500   660.36862     -1719.7347      36.789877     -1682.9448     -263.85713      6068.2924      12.897548      22.339209      21.061608    
     16000   678.77891     -1716.0215      37.815535     -1678.206       3402.0982      6069.3886      12.898325      22.340554      21.062877    
     16500   607.54844     -1719.3213      33.847206     -1685.4741     -4687.3421      6095.297       12.916652      22.372298      21.092804    
     17000   674.2557      -1722.0423      37.563542     -1684.4788     -3321.7594      6049.6882      12.884355      22.316357      21.040063    
     17500   626.53902     -1718.7189      34.905192     -1683.8137     -542.57999      6045.7707      12.881573      22.311539      21.03552     
     18000   670.16039     -1719.5912      37.335387     -1682.2558     -7191.0069      6132.1222      12.942612      22.417262      21.135197    
     18500   661.01909     -1720.6789      36.826115     -1683.8528      6064.1493      6002.8576      12.851022      22.258624      20.985632    
     19000   648.48837     -1719.6753      36.128015     -1683.5473     -4683.3298      6058.8673      12.890868      22.327638      21.050699    
     19500   664.63669     -1721.3889      37.027656     -1684.3612      4379.622       6001.1184      12.849781      22.256474      20.983605    
     20000   623.32818     -1723.1693      34.726313     -1688.443      -374.53265      6004.0852      12.851898      22.260141      20.987062    
Loop time of 266.081 on 8 procs for 20000 steps with 432 atoms

Performance: 12.989 ns/day, 1.848 hours/ns, 75.165 timesteps/s, 32.471 katom-step/s
96.4% CPU use with 1 MPI tasks x 8 OpenMP threads

MPI task timing breakdown:
Section |  min time  |  avg time  |  max time  |%varavg| %total
---------------------------------------------------------------
Pair    | 240.27     | 240.27     | 240.27     |   0.0 | 90.30
Neigh   | 0.078601   | 0.078601   | 0.078601   |   0.0 |  0.03
Comm    | 0.33845    | 0.33845    | 0.33845    |   0.0 |  0.13
Output  | 0.00423    | 0.00423    | 0.00423    |   0.0 |  0.00
Modify  | 25.298     | 25.298     | 25.298     |   0.0 |  9.51
Other   |            | 0.08774    |            |       |  0.03

Nlocal:            432 ave         432 max         432 min
Histogram: 1 0 0 0 0 0 0 0 0 0
Nghost:           2531 ave        2531 max        2531 min
Histogram: 1 0 0 0 0 0 0 0 0 0
Neighs:          33036 ave       33036 max       33036 min
Histogram: 1 0 0 0 0 0 0 0 0 0
FullNghs:        66072 ave       66072 max       66072 min
Histogram: 1 0 0 0 0 0 0 0 0 0

Total # of neighbors = 66072
Ave neighs/atom = 152.94444
Neighbor list builds = 92
Dangerous builds = 0
=== STAGE 3: NPT Production at 650 K ===
No /omp style for force computation currently active
Setting up Verlet run ...
  Unit style    : metal
  Current step  : 0
  Time step     : 0.001
Per MPI rank memory allocation (min/avg/max) = 18.59 | 18.59 | 18.59 Mbytes
   Step          Temp          PotEng         KinEng         TotEng         Press          Volume           Lx             Ly             Lz      
         0   623.32818     -1723.1693      34.726313     -1688.443      -374.53265      6004.0852      12.851898      22.260141      20.987062    
       500   629.88662     -1721.6218      35.091691     -1686.5301      6110.9308      5988.2677      12.840603      22.240576      20.968616    
      1000   633.92452     -1720.5413      35.316647     -1685.2247     -3655.5326      6072.4171      12.90047       22.34427       21.066379    
      1500   654.24322     -1723.6494      36.448624     -1687.2008     -1256.892       6025.0848      12.866864      22.286063      21.011502    
      2000   660.8229      -1722.1381      36.815185     -1685.3229      2967.5211      5978.0355      12.833285      22.227901      20.956666    
      2500   663.26841     -1720.2363      36.951428     -1683.2848     -8516.9141      6086.8894      12.91071       22.362006      21.083102    
      3000   672.83935     -1721.6958      37.484635     -1684.2112      2911.6111      5988.4373      12.840724      22.240786      20.968814    
      3500   615.82505     -1720.1492      34.308305     -1685.8408     -979.37573      6068.1518      12.897449      22.339037      21.061446    
      4000   639.45871     -1722.2134      35.624962     -1686.5885     -232.86515      6013.8268      12.858845      22.272173      20.998407    
      4500   629.35995     -1724.5099      35.062349     -1689.4475     -147.34989      6025.8304      12.867395      22.286982      21.012368    
      5000   632.71129     -1722.3327      35.249056     -1687.0837      11008.538      5945.163       12.809719      22.187084      20.918183    
      5500   648.91891     -1720.6289      36.152001     -1684.4769     -8780.5841      6107.7108      12.925415      22.387475      21.107114    
      6000   646.15138     -1721.4298      35.997819     -1685.432      -542.98801      6024.3048      12.866309      22.285101      21.010595    
      6500   620.72734     -1722.9511      34.581417     -1688.3697     -220.74379      6021.6969      12.864452      22.281885      21.007563    
      7000   626.10678     -1724.8655      34.881112     -1689.9844      1542.9633      6031.4531      12.871396      22.293912      21.018902    
      7500   633.77796     -1726.0574      35.308482     -1690.7489     -3950.7897      6034.03        12.873229      22.297086      21.021895    
      8000   642.07784     -1722.2398      35.770877     -1686.4689     -7997.8195      6057.1904      12.889678      22.325578      21.048757    
      8500   645.11125     -1721.5046      35.939872     -1685.5647      2635.5764      6046.9875      12.882437      22.313035      21.036932    
      9000   650.61942     -1725.8134      36.246738     -1689.5667     -523.64154      6000.2103      12.849133      22.255351      20.982546    
      9500   621.09219     -1723.5974      34.601743     -1688.9957     -4088.5909      6074.9036      12.902231      22.347319      21.069254    
     10000   635.79215     -1722.5505      35.420694     -1687.1298     -558.33355      6039.9068      12.877407      22.304323      21.028717    
     10500   642.22758     -1722.9791      35.779219     -1687.1998      146.71994      6000.7028      12.849485      22.25596       20.98312     
     11000   639.618       -1724.5395      35.633837     -1688.9056     -6085.0595      6049.4634      12.884195      22.31608       21.039802    
     11500   663.92219     -1721.4836      36.98785      -1684.4958      466.06505      6009.3221      12.855634      22.266611      20.993162    
     12000   640.06105     -1726.9301      35.65852      -1691.2715     -381.35784      6013.0255      12.858274      22.271184      20.997474    
     12500   661.60254     -1727.5328      36.85862      -1690.6741      1994.4663      5998.9377      12.848225      22.253778      20.981063    
     13000   671.34122     -1724.6883      37.401173     -1687.2871      3151.353       5998.9369      12.848224      22.253777      20.981062    
     13500   687.82992     -1725.9984      38.319777     -1687.6787     -225.50163      6005.2309      12.852716      22.261557      20.988397    
     14000   628.77366     -1725.6998      35.029686     -1690.6701     -664.58645      5982.594       12.836546      22.23355       20.961992    
     14500   641.4276      -1724.9252      35.734652     -1689.1905      3385.8668      5986.2963      12.839193      22.238135      20.966315    
     15000   656.13885     -1726.9257      36.554232     -1690.3714     -1937.6715      5993.6361      12.844439      22.24722       20.97488     
     15500   651.16232     -1727.5854      36.276984     -1691.3085      5523.8411      5968.2883      12.826306      22.215814      20.94527     
     16000   654.5566      -1725.66        36.466083     -1689.1939     -6425.0225      6042.0338      12.878918      22.306941      21.031185    
     16500   663.69449     -1724.2715      36.975165     -1687.2963      2317.4238      5991.1263      12.842645      22.244114      20.971952    
     17000   648.31637     -1726.9204      36.118433     -1690.802      -1795.4374      5995.0606      12.845456      22.248983      20.976542    
     17500   653.27547     -1725.6874      36.39471      -1689.2927      6388.1605      5976.9646      12.832518      22.226574      20.955415    
     18000   651.02846     -1725.4382      36.269526     -1689.1687      3996.1513      5987.6035      12.840128      22.239754      20.967841    
     18500   656.8224      -1726.4595      36.592313     -1689.8671      3758.1062      5977.5914      12.832967      22.227351      20.956147    
     19000   643.68604     -1729.0737      35.860472     -1693.2132     -38.951004      6000.8403      12.849583      22.25613       20.983281    
     19500   696.04086     -1731.0107      38.777217     -1692.2335     -484.55652      5964.566       12.823639      22.211194      20.940915    
     20000   642.90596     -1726.2034      35.817013     -1690.3864     -1480.8266      6001.8422      12.850298      22.257369      20.984448    
     20500   665.37253     -1725.3563      37.06865      -1688.2876      7397.1999      5951.9547      12.814595      22.195529      20.926145    
     21000   622.86432     -1726.5937      34.70047      -1691.8933     -4147.016       6026.4118      12.867809      22.287699      21.013044    
     21500   697.33887     -1727.0014      38.849531     -1688.1519     -4653.9751      6016.4966      12.860748      22.275469      21.001513    
     22000   655.0591      -1724.4842      36.494078     -1687.9901      7000.717       5982.1135      12.836202      22.232954      20.96143     
     22500   649.66467     -1725.5101      36.193548     -1689.3165     -861.02908      6032.2699      12.871977      22.294918      21.01985     
     23000   707.1754      -1729.7305      39.397535     -1690.3329      110.86781      5987.9588      12.840382      22.240194      20.968256    
     23500   602.6077      -1727.455       33.571951     -1693.8831      3842.155       5956.2234      12.817657      22.200834      20.931147    
     24000   612.7259      -1726.719       34.135648     -1692.5834     -2849.5408      6017.0989      12.861177      22.276212      21.002214    
     24500   628.18019     -1730.9847      34.996624     -1695.9881      2277.266       5940.4235      12.806314      22.181186      20.912623    
     25000   637.74845     -1726.7829      35.529682     -1691.2532     -2157.1675      5996.417       12.846425      22.25066       20.978124    
     25500   666.87874     -1726.9622      37.152563     -1689.8096      2141.207       5980.9693      12.835384      22.231537      20.960094    
     26000   704.20574     -1727.9289      39.232092     -1688.6968      2207.5905      5977.1687      12.832665      22.226827      20.955653    
     26500   655.02841     -1726.4682      36.492368     -1689.9758     -2451.6392      6001.4428      12.850013      22.256875      20.983983    
     27000   635.04762     -1728.5253      35.379216     -1693.1461     -1303.4114      5975.5632      12.831515      22.224837      20.953777    
     27500   641.21875     -1725.5244      35.723017     -1689.8014      6709.8191      5972.1911      12.829101      22.220655      20.949835    
     28000   612.46744     -1729.7847      34.121249     -1695.6635      411.44934      6023.4181      12.865678      22.284008      21.009564    
     28500   649.90797     -1726.0588      36.207103     -1689.8517      5846.3015      5960.0313      12.820388      22.205564      20.935607    
     29000   620.89967     -1729.0989      34.591018     -1694.5079      5053.4532      5959.1697      12.819771      22.204494      20.934598    
     29500   625.18696     -1728.5425      34.829867     -1693.7126     -3434.5454      5996.527       12.846503      22.250796      20.978252    
     30000   693.78443     -1728.2186      38.651509     -1689.5671      5338.1678      5941.9872      12.807437      22.183132      20.914458    
     30500   622.51847     -1727.8307      34.681203     -1693.1495     -1284.7604      5993.2083      12.844133      22.246691      20.974381    
     31000   622.44644     -1725.8922      34.67719      -1691.215       8028.7155      5945.0783      12.809658      22.186978      20.918084    
     31500   631.58364     -1728.5111      35.186234     -1693.3249     -3839.7748      6005.3752      12.852819      22.261735      20.988565    
     32000   648.81127     -1729.026       36.146004     -1692.88        2413.0488      5949.5063      12.812837      22.192485      20.923276    
     32500   619.64033     -1726.1672      34.520858     -1691.6464     -1543.2187      6016.4992      12.86075       22.275472      21.001517    
     33000   627.46762     -1728.262       34.956926     -1693.3051      2034.2548      5993.0708      12.844035      22.246521      20.974221    
     33500   710.81898     -1729.2084      39.600523     -1689.6079     -5114.0949      6005.6909      12.853044      22.262125      20.988933    
     34000   578.14095     -1726.8696      32.208881     -1694.6607      6936.0002      5987.6268      12.840144      22.239783      20.967868    
     34500   680.67618     -1725.4812      37.921234     -1687.56        7578.0731      5963.0745      12.82257       22.209343      20.939169    
     35000   639.88384     -1725.3484      35.648647     -1689.6997     -2132.7483      6032.9765      12.87248       22.295789      21.020671    
     35500   676.27736     -1728.7297      37.676171     -1691.0535      7167.9687      5945.0034      12.809604      22.186885      20.917996    
     36000   638.49009     -1730.7298      35.571        -1695.1588     -6475.7987      6019.1275      12.862622      22.278715      21.004574    
     36500   604.56074     -1729.3359      33.680757     -1695.6552     -11713.158      6067.3808      12.896903      22.338091      21.060554    
     37000   665.36414     -1725.9614      37.068183     -1688.8933      3404.1878      5981.4902      12.835756      22.232182      20.960702    
     37500   622.90561     -1728.1179      34.702771     -1693.4151     -5451.3931      6009.279       12.855603      22.266558      20.993112    
     38000   668.44263     -1727.8424      37.239689     -1690.6027      7668.1816      5928.0327      12.797404      22.165753      20.898072    
     38500   626.7899      -1728.7729      34.919169     -1693.8538      1738.46        5985.1028      12.83834       22.236657      20.964921    
     39000   633.63115     -1729.8735      35.300303     -1694.5732      823.62942      5988.4523      12.840735      22.240805      20.968832    
     39500   650.62687     -1726.0188      36.247153     -1689.7717     -615.75792      5995.2308      12.845578      22.249193      20.97674     
     40000   695.34718     -1728.3626      38.738572     -1689.624       137.77929      6001.9132      12.850349      22.257457      20.984531    
     40500   668.79777     -1728.6292      37.259474     -1691.3697      4395.8391      5945.0541      12.80964       22.186948      20.918055    
     41000   613.02204     -1725.9528      34.152146     -1691.8006     -11195.888      6037.0203      12.875355      22.300769      21.025367    
     41500   606.6902      -1727.977       33.799392     -1694.1777      7201.3885      5953.6674      12.815824      22.197658      20.928152    
     42000   673.36382     -1729.968       37.513854     -1692.4541      8.5279288      5983.6563      12.837306      22.234866      20.963232    
     42500   657.0146      -1729.3078      36.603021     -1692.7048      909.49641      5960.1698      12.820488      22.205736      20.935769    
     43000   640.8077      -1727.7915      35.700117     -1692.0914      4487.2192      5960.4738      12.820706      22.206114      20.936125    
     43500   644.72396     -1727.5219      35.918295     -1691.6036      3713.7707      5976.2263      12.83199       22.225659      20.954552    
     44000   658.89665     -1725.6541      36.707872     -1688.9462     -2313.2991      6008.448       12.855011      22.265531      20.992144    
     44500   624.55879     -1727.7399      34.794871     -1692.9451     -4962.747       6023.6916      12.865873      22.284345      21.009882    
     45000   683.82456     -1729.6651      38.096634     -1691.5684      3049.4277      5963.8382      12.823117      22.210291      20.940063    
     45500   663.38377     -1726.8432      36.957855     -1689.8854      901.72952      6004.6356      12.852291      22.260821      20.987704    
     46000   646.51187     -1725.7979      36.017902     -1689.78        6202.3625      5946.8496      12.81093       22.189181      20.920161    
     46500   649.25487     -1729.2983      36.170718     -1693.1276     -914.10961      5990.3942      12.842122      22.243208      20.971098    
     47000   598.24342     -1729.7913      33.328812     -1696.4624      3080.0104      5940.2523      12.806191      22.180973      20.912422    
     47500   637.7538      -1729.1841      35.52998      -1693.6541     -828.95712      6011.8002      12.857401      22.269671      20.996048    
     48000   682.84145     -1729.0407      38.041864     -1690.9988      2591.6037      5978.0671      12.833307      22.22794       20.956703    
     48500   604.88277     -1728.2597      33.698698     -1694.561      -4379.2796      5995.915       12.846066      22.250039      20.977538    
     49000   641.00172     -1728.7184      35.710925     -1693.0075     -3279.0973      5996.1903      12.846263      22.25038       20.977859    
     49500   682.29078     -1724.4639      38.011185     -1686.4528      7217.3095      5993.6118      12.844421      22.24719       20.974852    
     50000   624.65446     -1727.9837      34.800201     -1693.1835      3159.277       6009.0839      12.855464      22.266317      20.992885    
Loop time of 613.985 on 8 procs for 50000 steps with 432 atoms

Performance: 7.036 ns/day, 3.411 hours/ns, 81.435 timesteps/s, 35.180 katom-step/s
96.1% CPU use with 1 MPI tasks x 8 OpenMP threads

MPI task timing breakdown:
Section |  min time  |  avg time  |  max time  |%varavg| %total
---------------------------------------------------------------
Pair    | 555.53     | 555.53     | 555.53     |   0.0 | 90.48
Neigh   | 0.047885   | 0.047885   | 0.047885   |   0.0 |  0.01
Comm    | 0.72514    | 0.72514    | 0.72514    |   0.0 |  0.12
Output  | 0.009197   | 0.009197   | 0.009197   |   0.0 |  0.00
Modify  | 57.518     | 57.518     | 57.518     |   0.0 |  9.37
Other   |            | 0.157      |            |       |  0.03

Nlocal:            432 ave         432 max         432 min
Histogram: 1 0 0 0 0 0 0 0 0 0
Nghost:           2484 ave        2484 max        2484 min
Histogram: 1 0 0 0 0 0 0 0 0 0
Neighs:          32923 ave       32923 max       32923 min
Histogram: 1 0 0 0 0 0 0 0 0 0
FullNghs:        65846 ave       65846 max       65846 min
Histogram: 1 0 0 0 0 0 0 0 0 0

Total # of neighbors = 65846
Ave neighs/atom = 152.4213
Neighbor list builds = 53
Dangerous builds = 0

=== FINAL RESULTS: HCP at 650 K ===
Atoms: 432 | PE/atom: -4.0001800109904 eV/atom
WARNING: Detected non-ASCII characters in input. Will try to continue by replacing with ASCII equivalents where known. (src/input.cpp:479)
Volume: 6009.08385433719 …³ | Area: 286.243834710647 ²
==========================================
HCP 650 432 -4.0001800109904 6009.08385433719 12.8554640157326 22.2663168253079 20.9928848263633 286.243834710647
Simulation complete!
Total wall time: 0:14:42
