LAMMPS (10 Sep 2025)
  using 8 OpenMP thread(s) per MPI task
Loaded 1 plugins from C:\Users\kumar\AppData\Local\LAMMPS 64-bit 10Sep2025\plugins
using multi-threaded neighbor list subroutines
Reading data file ...
  orthogonal box = (0 0 0) to (15.901417 27.542063 25.966906)
  1 by 1 by 1 MPI processor grid
  reading atoms ...
  432 atoms
  read_data CPU = 0.003 seconds
=== STAGE 1: Energy Minimization ===
Switching to 'neigh_modify every 1 delay 0 check yes' setting during minimization
No /omp style for force computation currently active
Neighbor list info ...
  update: every = 1 steps, delay = 0 steps, check = yes
  max neighbors/atom: 4000, page size: 100000
  master list distance cutoff = 8
  ghost atom cutoff = 8
  binsize = 4, bins = 4 7 7
  2 neighbor lists, perpetual/occasional/extra = 2 0 0
  (1) pair meam, perpetual
      attributes: full, newton on, omp
      pair build: full/bin/atomonly/omp
      stencil: full/bin/3d
      bin: standard
  (2) pair meam, perpetual, half/full from (1)
      attributes: half, newton on, omp
      pair build: halffull/newton/omp
      stencil: none
      bin: none
Setting up cg style minimization ...
  Unit style    : metal
  Current step  : 0
Per MPI rank memory allocation (min/avg/max) = 19.33 | 19.33 | 19.33 Mbytes
   Step          Temp          PotEng         KinEng         TotEng         Press          Volume           Lx             Ly             Lz      
         0   0             -1170.6291      0             -1170.6291     -34715.221      11372.41       15.901417      27.542063      25.966906    
       149   0             -1447.2902      0             -1447.2902     -46418.895      11372.41       15.901417      27.542063      25.966906    
Loop time of 1.79013 on 8 procs for 149 steps with 432 atoms

96.9% CPU use with 1 MPI tasks x 8 OpenMP threads

Minimization stats:
  Stopping criterion = energy tolerance
  Energy initial, next-to-last, final = 
     -1170.62914053696  -1447.28900478012  -1447.29022472665
  Force two-norm initial, final = 43.07308 8.585763
  Force max component initial, final = 6.1496609 4.7893201
  Final line search alpha, max atom move = 0.064501398 0.30891784
  Iterations, force evaluations = 149 381

MPI task timing breakdown:
Section |  min time  |  avg time  |  max time  |%varavg| %total
---------------------------------------------------------------
Pair    | 1.7356     | 1.7356     | 1.7356     |   0.0 | 96.95
Neigh   | 0.002022   | 0.002022   | 0.002022   |   0.0 |  0.11
Comm    | 0.003403   | 0.003403   | 0.003403   |   0.0 |  0.19
Output  | 0          | 0          | 0          |   0.0 |  0.00
Modify  | 0.04417    | 0.04417    | 0.04417    |   0.0 |  2.47
Other   |            | 0.004953   |            |       |  0.28

Nlocal:            432 ave         432 max         432 min
Histogram: 1 0 0 0 0 0 0 0 0 0
Nghost:           1744 ave        1744 max        1744 min
Histogram: 1 0 0 0 0 0 0 0 0 0
Neighs:          17287 ave       17287 max       17287 min
Histogram: 1 0 0 0 0 0 0 0 0 0
FullNghs:        34574 ave       34574 max       34574 min
Histogram: 1 0 0 0 0 0 0 0 0 0

Total # of neighbors = 34574
Ave neighs/atom = 80.032407
Neighbor list builds = 4
Dangerous builds = 0
Minimized PE/atom: -3.35020885353392 eV/atom
=== STAGE 2: NPT Equilibration at 650 K ===
No /omp style for force computation currently active
Setting up Verlet run ...
  Unit style    : metal
  Current step  : 0
  Time step     : 0.002
Per MPI rank memory allocation (min/avg/max) = 18.22 | 18.22 | 18.22 Mbytes
   Step          Temp          PotEng         KinEng         TotEng         Press          Volume           Lx             Ly             Lz      
         0   650           -1447.2902      36.21223      -1411.078      -43017.775      11372.41       15.901417      27.542063      25.966906    
       500   978.29145     -1599.486       54.501715     -1544.9843     -1037.4808      7106.8676      13.594954      23.547151      22.200467    
      1000   685.62538     -1666.3964      38.19696      -1628.1995      3902.932       6564.5362      13.23995       22.932266      21.620748    
      1500   664.70979     -1688.1451      37.031728     -1651.1134     -1374.3976      6351.2224      13.094958      22.681133      21.383977    
      2000   680.18702     -1691.8703      37.893982     -1653.9763      1719.799       6262.9589      13.034014      22.575575      21.284456    
      2500   708.2299      -1693.7939      39.456283     -1654.3377      467.41972      6303.1563      13.06184       22.623771      21.329895    
      3000   627.61309     -1700.1514      34.96503      -1665.1863      3319.9309      6204.9996      12.993683      22.505718      21.218595    
      3500   639.37294     -1705.7463      35.620184     -1670.1261     -4463.0486      6209.5673      12.99687       22.511239      21.2238      
      4000   619.19756     -1705.2305      34.496191     -1670.7343      1618.6369      6175.5501      12.973094      22.470057      21.184973    
      4500   639.58695     -1709.7298      35.632107     -1674.0977      1737.7556      6126.3951      12.938582      22.410281      21.128615    
      5000   632.04293     -1708.1662      35.211821     -1672.9544      3199.3959      6111.0753      12.927788      22.391585      21.110989    
      5500   611.7224      -1707.8363      34.079742     -1673.7566     -2621.4411      6196.237       12.987563      22.495119      21.208602    
      6000   621.78499     -1707.2411      34.64034      -1672.6008      993.78855      6158.8325      12.961377      22.449763      21.16584     
      6500   648.06221     -1710.0639      36.104273     -1673.9596      1331.7561      6145.0103      12.951673      22.432956      21.149994    
      7000   626.62982     -1713.7294      34.91025      -1678.8192     -5101.6903      6178.36        12.975061      22.473465      21.188186    
      7500   655.5477      -1716.2984      36.521298     -1679.7771     -1615.2435      6159.5101      12.961852      22.450586      21.166616    
      8000   663.2445      -1711.2235      36.950096     -1674.2734      1584.8547      6158.1752      12.960916      22.448964      21.165087    
      8500   637.35106     -1716.1899      35.507543     -1680.6823      511.66031      6154.5545      12.958375      22.444564      21.160938    
      9000   647.71644     -1717.2573      36.08501      -1681.1723      5760.2577      6118.2059      12.932814      22.400291      21.119197    
      9500   643.16923     -1720.4961      35.83168      -1684.6644      5728.9131      6103.1468      12.922195      22.381897      21.101855    
     10000   620.57496     -1716.6487      34.572927     -1682.0758     -3058.3614      6175.9528      12.973376      22.470546      21.185434    
     10500   590.78896     -1721.1155      32.913516     -1688.202      -1448.048       6126.0259      12.938322      22.409831      21.128191    
     11000   640.43215     -1720.9814      35.679194     -1685.3022      818.83796      6128.5241      12.94008       22.412876      21.131063    
     11500   668.15083     -1722.2743      37.223433     -1685.0509     -4164.2125      6125.6928      12.938087      22.409424      21.127808    
     12000   634.89974     -1719.4239      35.370977     -1684.0529     -3690.6642      6165.5831      12.966111      22.457962      21.17357     
     12500   673.76195     -1723.1791      37.536034     -1685.643       2518.5364      6084.044       12.908698      22.358521      21.079816    
     13000   599.1937      -1721.759       33.381754     -1688.3772      1494.9307      6086.7812      12.910634      22.361874      21.082977    
     13500   673.47682     -1725.5838      37.520149     -1688.0636     -5065.4995      6138.168       12.946864      22.424627      21.142141    
     14000   654.49662     -1718.7844      36.462741     -1682.3217      7459.1315      6065.4742      12.895552      22.33575       21.058348    
     14500   577.52316     -1722.8927      32.174464     -1690.7182      186.72749      6116.4531      12.931579      22.398152      21.11718     
     15000   646.76672     -1724.5469      36.0321       -1688.5148      5291.028       6057.9406      12.89021       22.326499      21.049625    
     15500   647.65586     -1726.2972      36.081635     -1690.2156      1988.235       6080.7579      12.906374      22.354495      21.07602     
     16000   628.91007     -1727.0082      35.037286     -1691.9709      1266.5177      6077.5779      12.904124      22.350598      21.072346    
     16500   670.95193     -1727.0904      37.379485     -1689.711      -1948.2064      6070.6259      12.899201      22.342072      21.064308    
     17000   686.5192      -1728.2343      38.246755     -1689.9875      1360.8844      6072.3278      12.900407      22.34416       21.066276    
     17500   666.18153     -1729.6729      37.113721     -1692.5592      2775.7631      6046.1337      12.881831      22.311985      21.035941    
     18000   670.93803     -1728.7995      37.378711     -1691.4208     -110.19059      6065.9139      12.895863      22.33629       21.058856    
     18500   676.71549     -1725.4314      37.70058      -1687.7308      2851.0785      6095.7093      12.916943      22.372802      21.09328     
     19000   611.64013     -1726.4938      34.075158     -1692.4186      1980.7754      6031.9311      12.871736      22.294501      21.019457    
     19500   692.96503     -1727.5816      38.60586      -1688.9757      342.96745      6053.0503      12.886741      22.32049       21.04396     
     20000   630.17381     -1729.7399      35.10769      -1694.6322     -4868.1576      6067.6069      12.897063      22.338368      21.060815    
Loop time of 211.408 on 8 procs for 20000 steps with 432 atoms

Performance: 16.348 ns/day, 1.468 hours/ns, 94.604 timesteps/s, 40.869 katom-step/s
96.7% CPU use with 1 MPI tasks x 8 OpenMP threads

MPI task timing breakdown:
Section |  min time  |  avg time  |  max time  |%varavg| %total
---------------------------------------------------------------
Pair    | 191.21     | 191.21     | 191.21     |   0.0 | 90.45
Neigh   | 0.073326   | 0.073326   | 0.073326   |   0.0 |  0.03
Comm    | 0.25388    | 0.25388    | 0.25388    |   0.0 |  0.12
Output  | 0.003551   | 0.003551   | 0.003551   |   0.0 |  0.00
Modify  | 19.798     | 19.798     | 19.798     |   0.0 |  9.36
Other   |            | 0.0697     |            |       |  0.03

Nlocal:            432 ave         432 max         432 min
Histogram: 1 0 0 0 0 0 0 0 0 0
Nghost:           2495 ave        2495 max        2495 min
Histogram: 1 0 0 0 0 0 0 0 0 0
Neighs:          33090 ave       33090 max       33090 min
Histogram: 1 0 0 0 0 0 0 0 0 0
FullNghs:        66180 ave       66180 max       66180 min
Histogram: 1 0 0 0 0 0 0 0 0 0

Total # of neighbors = 66180
Ave neighs/atom = 153.19444
Neighbor list builds = 94
Dangerous builds = 0
=== STAGE 3: NPT Production at 650 K ===
No /omp style for force computation currently active
Setting up Verlet run ...
  Unit style    : metal
  Current step  : 0
  Time step     : 0.001
Per MPI rank memory allocation (min/avg/max) = 18.58 | 18.58 | 18.58 Mbytes
   Step          Temp          PotEng         KinEng         TotEng         Press          Volume           Lx             Ly             Lz      
         0   630.17381     -1729.7399      35.10769      -1694.6322     -4868.1576      6067.6069      12.897063      22.338368      21.060815    
       500   624.59681     -1729.026       34.796989     -1694.229       4704.4206      6029.4942      12.870002      22.291498      21.016626    
      1000   687.81916     -1731.9303      38.319177     -1693.6111     -5814.1694      6095.1415      12.916542      22.372107      21.092625    
      1500   698.71254     -1729.4468      38.92606      -1690.5208     -578.90628      6067.7204      12.897143      22.338507      21.060947    
      2000   702.25694     -1732.161       39.123522     -1693.0375     -763.28113      6036.178       12.874756      22.299732      21.024389    
      2500   662.8471      -1730.8922      36.927956     -1693.9643      1316.2006      6020.3542      12.863496      22.280229      21.006001    
      3000   659.1438      -1733.0787      36.721641     -1696.357      -596.41709      6033.0089      12.872503      22.295829      21.020709    
      3500   631.27104     -1730.6368      35.168818     -1695.468       727.01528      6022.0935      12.864735      22.282374      21.008024    
      4000   630.07571     -1732.6292      35.102225     -1697.527       832.69879      6045.7443      12.881554      22.311506      21.03549     
      4500   695.99587     -1732.6183      38.774711     -1693.8435     -909.38946      6044.528       12.88069       22.31001       21.034079    
      5000   638.51545     -1731.5809      35.572413     -1696.0085     -5266.9282      6069.8346      12.898641      22.341102      21.063392    
      5500   567.49785     -1730.9453      31.615942     -1699.3294      8474.3221      6001.0405      12.849726      22.256378      20.983514    
      6000   611.77317     -1732.1434      34.08257      -1698.0608     -160.63068      6043.4951      12.879956      22.308739      21.032881    
      6500   669.67166     -1732.525       37.30816      -1695.2169      1129.0858      6054.1241      12.887503      22.32181       21.045204    
      7000   627.8667      -1734.7558      34.979159     -1699.7767      2174.1313      5991.9166      12.84321       22.245093      20.972874    
      7500   671.79968     -1734.4464      37.426714     -1697.0197      4971.357       5964.5375      12.823619      22.211159      20.940882    
      8000   644.23847     -1731.7224      35.891248     -1695.8312     -2867.8437      6025.0729      12.866856      22.286048      21.011488    
      8500   633.71007     -1732.0986      35.304699     -1696.7939      5560.2109      5973.8615      12.830297      22.222727      20.951788    
      9000   645.89219     -1733.4069      35.983379     -1697.4235     -4652.2179      6059.6343      12.891412      22.32858       21.051587    
      9500   655.8094      -1735.7807      36.535878     -1699.2449      8946.4401      5951.0609      12.813953      22.194418      20.925098    
     10000   653.46693     -1734.4451      36.405376     -1698.0397     -3608.1189      6053.0317      12.886728      22.320467      21.043938    
     10500   618.29256     -1735.8008      34.445772     -1701.355      -1942.4317      6014.6636      12.859442      22.273207      20.999381    
     11000   626.1507      -1735.4497      34.883558     -1700.5662      5119.4096      6031.0701      12.871124      22.29344       21.018457    
     11500   651.24727     -1735.5191      36.281717     -1699.2374      5610.2395      5987.2009      12.83984       22.239255      20.967371    
     12000   621.24564     -1732.8277      34.610292     -1698.2174     -2954.5881      6065.4621      12.895543      22.335736      21.058334    
     12500   655.9746      -1736.4314      36.545081     -1699.8863      8168.3467      5975.6865      12.831604      22.224989      20.953921    
     13000   654.28984     -1734.395       36.451221     -1697.9437     -6185.7849      6048.051       12.883192      22.314343      21.038165    
     13500   688.56211     -1734.4464      38.360568     -1696.0858      2421.9093      5993.3548      12.844238      22.246872      20.974552    
     14000   649.59802     -1733.7536      36.189835     -1697.5637     -6247.952       6053.1206      12.886791      22.320576      21.044041    
     14500   619.00829     -1735.6149      34.485646     -1701.1292      3945.0837      5970.5799      12.827948      22.218657      20.947951    
     15000   685.61869     -1735.9704      38.196587     -1697.7738      1879.8786      6005.49        12.852901      22.261877      20.988699    
     15500   683.30711     -1733.6667      38.067806     -1695.5989     -1769.5019      6033.8437      12.873096      22.296857      21.021678    
     16000   640.31352     -1735.2083      35.672585     -1699.5358     -2951.7027      6034.6897      12.873698      22.297899      21.022661    
     16500   644.21553     -1737.5436      35.889971     -1701.6536     -7135.7128      6060.6598      12.892139      22.329839      21.052774    
     17000   653.47799     -1733.6204      36.405992     -1697.2144      4183.7181      5995.5768      12.845825      22.249621      20.977144    
     17500   619.48679     -1736.2051      34.512304     -1701.6928     -4215.413       6038.6217      12.876493      22.302741      21.027226    
     18000   636.02853     -1738.3495      35.433863     -1702.9156      7801.4931      5943.3427      12.808411      22.184819      20.916048    
     18500   658.36722     -1735.9872      36.678377     -1699.3088     -8042.2298      6073.7146      12.901389      22.345861      21.06788     
     19000   631.5098      -1738.2826      35.18212      -1703.1005     -2906.8646      6011.5287      12.857207      22.269336      20.995731    
     19500   644.06051     -1739.2848      35.881334     -1703.4035     -3077.6304      6025.2596      12.866989      22.286278      21.011705    
     20000   669.01798     -1737.9932      37.271742     -1700.7214      2079.3765      5968.4078      12.826392      22.215962      20.94541     
     20500   645.15585     -1734.4145      35.942357     -1698.4721     -3433.4681      6041.8006      12.878752      22.306654      21.030915    
     21000   646.60338     -1735.7157      36.023        -1699.6927     -1897.6679      6046.1475      12.88184       22.312002      21.035957    
     21500   616.70231     -1736.2747      34.357178     -1701.9176      4341.8247      5960.7336      12.820892      22.206436      20.936429    
     22000   664.09933     -1736.4975      36.997719     -1699.4998     -5570.9599      6038.8518      12.876657      22.303024      21.027493    
     22500   689.71442     -1741.014       38.424765     -1702.5892      2092.9194      5976.5121      12.832195      22.226013      20.954886    
     23000   656.86355     -1742.6107      36.594606     -1706.0161     -5750.924       6034.9228      12.873864      22.298186      21.022931    
     23500   628.56867     -1738.4783      35.018266     -1703.46       -834.2418       6019.8301      12.863123      22.279582      21.005391    
     24000   678.77551     -1741.9628      37.815345     -1704.1474      5481.7192      5997.0324      12.846864      22.251422      20.978841    
     24500   703.95595     -1740.7768      39.218176     -1701.5586     -2487.0127      6021.4192      12.864254      22.281542      21.00724     
     25000   649.27812     -1736.6167      36.172013     -1700.4447     -1640.5664      6035.4842      12.874263      22.298877      21.023583    
     25500   647.91611     -1740.9412      36.096134     -1704.845       702.71137      5989.5421      12.841513      22.242154      20.970104    
     26000   688.97404     -1741.954       38.383517     -1703.5705     -5761.6894      6044.0996      12.880386      22.309483      21.033582    
     26500   672.2014      -1740.8558      37.449094     -1703.4067     -3635.1502      6002.211       12.850561      22.257825      20.984878    
     27000   665.56291     -1739.166       37.079257     -1702.0867     -560.08938      6030.9802      12.87106       22.293329      21.018352    
     27500   654.04859     -1741.5401      36.437781     -1705.1023     -3968.1554      6062.9908      12.893791      22.332702      21.055473    
     28000   636.06076     -1739.6965      35.435659     -1704.2608     -7872.0094      6054.0468      12.887448      22.321715      21.045114    
     28500   636.42711     -1741.2013      35.456068     -1705.7453      7489.3359      5940.5431      12.8064        22.181335      20.912763    
     29000   660.08379     -1738.3614      36.774009     -1701.5874      2964.9702      6021.9407      12.864626      22.282186      21.007846    
     29500   688.5131      -1741.1074      38.357837     -1702.7496      6787.5885      5988.6857      12.840901      22.241093      20.969104    
     30000   644.77834     -1742.9403      35.921325     -1707.019      -2651.0043      6028.5287      12.869315      22.290308      21.015504    
     30500   701.02543     -1744.0333      39.054914     -1704.9784      13871.86       5927.5826      12.79708       22.165192      20.897544    
     31000   624.43258     -1740.7929      34.78784      -1706.0051     -224.31676      6030.3067      12.870581      22.292499      21.01757     
     31500   663.36977     -1741.551       36.957075     -1704.5939     -817.47514      6012.2691      12.857735      22.27025       20.996593    
     32000   634.0313      -1737.9093      35.322596     -1702.5867      3448.5474      5996.9538      12.846808      22.251324      20.97875     
     32500   569.39839     -1743.4442      31.721823     -1711.7223      2669.7361      5991.3999      12.842841      22.244453      20.972272    
     33000   686.82789     -1740.6326      38.263953     -1702.3686     -1642.3479      6016.066       12.860441      22.274937      21.001012    
     33500   627.02152     -1739.6776      34.932073     -1704.7456      1485.1466      5989.963       12.841814      22.242675      20.970595    
     34000   598.51014     -1739.799       33.343672     -1706.4553      2520.6191      6013.5348      12.858637      22.271813      20.998067    
     34500   638.82912     -1741.5867      35.589888     -1705.9968      2139.9992      5985.677       12.838751      22.237368      20.965592    
     35000   663.5111      -1740.2789      36.964948     -1703.3139     -2120.6727      6022.2658      12.864857      22.282587      21.008224    
     35500   636.9568      -1740.0598      35.485578     -1704.5743     -2289.835       6036.9859      12.875331      22.300727      21.025327    
     36000   678.50059     -1741.3364      37.800029     -1703.5364      4572.4373      6002.6593      12.850881      22.258379      20.985401    
     36500   646.93846     -1739.9625      36.041668     -1703.9208      671.1797       6008.4317      12.854999      22.265511      20.992125    
     37000   629.68217     -1740.8466      35.080301     -1705.7663      10340.27       5943.1489      12.808272      22.184578      20.91582     
     37500   649.69464     -1737.7754      36.195218     -1701.5802      1781.7997      5998.9783      12.848254      22.253828      20.98111     
     38000   686.08383     -1740.5151      38.2225       -1702.2926      1748.9644      5987.44        12.840011      22.239551      20.96765     
     38500   659.48666     -1741.3642      36.740742     -1704.6235     -6963.8703      6013.5278      12.858632      22.271804      20.998059    
     39000   699.90809     -1739.2694      38.992665     -1700.2767      4845.0261      6007.4129      12.854272      22.264253      20.990939    
     39500   630.70963     -1744.0211      35.137541     -1708.8836     -5862.4265      6058.8432      12.890851      22.327608      21.050671    
     40000   655.41063     -1741.8842      36.513662     -1705.3705      5322.1364      5974.3027      12.830613      22.223274      20.952303    
     40500   645.40441     -1737.4096      35.956204     -1701.4534      6991.3893      5992.6684      12.843747      22.246023      20.973751    
     41000   613.16248     -1742.0645      34.15997      -1707.9045     -876.20113      6001.884       12.850328      22.25742       20.984497    
     41500   621.26843     -1740.9451      34.611562     -1706.3336     -2437.2019      6034.9237      12.873864      22.298187      21.022932    
     42000   644.76958     -1742.2431      35.920837     -1706.3223      1588.9043      5973.1965      12.829821      22.221902      20.95101     
     42500   684.70133     -1741.297       38.14548      -1703.1515      2199.1347      5993.4288      12.84429       22.246964      20.974639    
     43000   653.7608      -1740.9946      36.421748     -1704.5729     -2400.8192      6029.0141      12.869661      22.290906      21.016068    
     43500   647.61393     -1740.9205      36.079299     -1704.8412      3214.9579      6002.2109      12.850561      22.257824      20.984878    
     44000   633.92141     -1742.2522      35.316473     -1706.9358      879.93447      6013.6         12.858684      22.271893      20.998143    
     44500   646.84301     -1742.2407      36.03635      -1706.2043      7515.6123      5933.9505      12.801661      22.173127      20.905024    
     45000   657.93208     -1741.1067      36.654135     -1704.4525     -3436.3491      6045.9396      12.881693      22.311746      21.035716    
     45500   642.62684     -1741.3425      35.801463     -1705.541      -1783.1851      6034.1861      12.87334       22.297279      21.022076    
     46000   623.68589     -1740.1071      34.746241     -1705.3609      4722.3236      5946.9288      12.810987      22.18928       20.920254    
     46500   647.83997     -1742.0276      36.091892     -1705.9357      1643.3013      5984.9528      12.838233      22.236471      20.964746    
     47000   635.70012     -1741.8787      35.415567     -1706.4631     -7846.1646      6045.2512      12.881204      22.3109        21.034918    
     47500   665.48259     -1742.3291      37.074782     -1705.2543      2714.6847      5977.5279      12.832922      22.227272      20.956073    
     48000   646.98253     -1744.9897      36.044123     -1708.9456     -4886.9226      6042.0679      12.878942      22.306983      21.031225    
     48500   628.70929     -1740.7343      35.0261       -1705.7082     -5175.388       6031.5964      12.871498      22.294089      21.019068    
     49000   655.88088     -1744.3079      36.53986      -1707.768       2323.4894      5990.036       12.841866      22.242765      20.97068     
     49500   691.33047     -1742.7077      38.514797     -1704.1929     -2499.3155      6029.9445      12.870323      22.292053      21.017149    
     50000   694.67605     -1744.1062      38.701183     -1705.405      -1073.2552      6022.7798      12.865223      22.283221      21.008822    
Loop time of 544.096 on 8 procs for 50000 steps with 432 atoms

Performance: 7.940 ns/day, 3.023 hours/ns, 91.896 timesteps/s, 39.699 katom-step/s
96.8% CPU use with 1 MPI tasks x 8 OpenMP threads

MPI task timing breakdown:
Section |  min time  |  avg time  |  max time  |%varavg| %total
---------------------------------------------------------------
Pair    | 493.41     | 493.41     | 493.41     |   0.0 | 90.68
Neigh   | 0.061106   | 0.061106   | 0.061106   |   0.0 |  0.01
Comm    | 0.62424    | 0.62424    | 0.62424    |   0.0 |  0.11
Output  | 0.008219   | 0.008219   | 0.008219   |   0.0 |  0.00
Modify  | 49.848     | 49.848     | 49.848     |   0.0 |  9.16
Other   |            | 0.1465     |            |       |  0.03

Nlocal:            432 ave         432 max         432 min
Histogram: 1 0 0 0 0 0 0 0 0 0
Nghost:           2512 ave        2512 max        2512 min
Histogram: 1 0 0 0 0 0 0 0 0 0
Neighs:          33026 ave       33026 max       33026 min
Histogram: 1 0 0 0 0 0 0 0 0 0
FullNghs:        66052 ave       66052 max       66052 min
Histogram: 1 0 0 0 0 0 0 0 0 0

Total # of neighbors = 66052
Ave neighs/atom = 152.89815
Neighbor list builds = 74
Dangerous builds = 0

=== FINAL RESULTS: DHCP at 650 K ===
Atoms: 432 | PE/atom: -4.0334641162509 eV/atom
WARNING: Detected non-ASCII characters in input. Will try to continue by replacing with ASCII equivalents where known. (src/input.cpp:479)
Volume: 6022.77983329818 …³ | Area: 286.678610005973 ²
==========================================
DHCP 650 432 -4.0334641162509 6022.77983329818 12.8652233829671 22.2832205452041 21.0088218063172 286.678610005973
Simulation complete!
Total wall time: 0:12:37
