LAMMPS (10 Sep 2025)
  using 8 OpenMP thread(s) per MPI task
Loaded 1 plugins from C:\Users\kumar\AppData\Local\LAMMPS 64-bit 10Sep2025\plugins
using multi-threaded neighbor list subroutines
Reading data file ...
  orthogonal box = (0 0 0) to (15.901417 27.542063 25.966906)
  1 by 1 by 1 MPI processor grid
  reading atoms ...
  432 atoms
  read_data CPU = 0.004 seconds
=== STAGE 1: Energy Minimization ===
Switching to 'neigh_modify every 1 delay 0 check yes' setting during minimization
No /omp style for force computation currently active
Neighbor list info ...
  update: every = 1 steps, delay = 0 steps, check = yes
  max neighbors/atom: 4000, page size: 100000
  master list distance cutoff = 8
  ghost atom cutoff = 8
  binsize = 4, bins = 4 7 7
  2 neighbor lists, perpetual/occasional/extra = 2 0 0
  (1) pair meam, perpetual
      attributes: full, newton on, omp
      pair build: full/bin/atomonly/omp
      stencil: full/bin/3d
      bin: standard
  (2) pair meam, perpetual, half/full from (1)
      attributes: half, newton on, omp
      pair build: halffull/newton/omp
      stencil: none
      bin: none
Setting up cg style minimization ...
  Unit style    : metal
  Current step  : 0
Per MPI rank memory allocation (min/avg/max) = 19.33 | 19.33 | 19.33 Mbytes
   Step          Temp          PotEng         KinEng         TotEng         Press          Volume           Lx             Ly             Lz      
         0   0             -1170.6291      0             -1170.6291     -34715.221      11372.41       15.901417      27.542063      25.966906    
       149   0             -1447.2902      0             -1447.2902     -46418.895      11372.41       15.901417      27.542063      25.966906    
Loop time of 2.11876 on 8 procs for 149 steps with 432 atoms

92.9% CPU use with 1 MPI tasks x 8 OpenMP threads

Minimization stats:
  Stopping criterion = energy tolerance
  Energy initial, next-to-last, final = 
     -1170.62914053696  -1447.28900478012  -1447.29022472665
  Force two-norm initial, final = 43.07308 8.585763
  Force max component initial, final = 6.1496609 4.7893201
  Final line search alpha, max atom move = 0.064501398 0.30891784
  Iterations, force evaluations = 149 381

MPI task timing breakdown:
Section |  min time  |  avg time  |  max time  |%varavg| %total
---------------------------------------------------------------
Pair    | 2.0547     | 2.0547     | 2.0547     |   0.0 | 96.98
Neigh   | 0.002959   | 0.002959   | 0.002959   |   0.0 |  0.14
Comm    | 0.004468   | 0.004468   | 0.004468   |   0.0 |  0.21
Output  | 0          | 0          | 0          |   0.0 |  0.00
Modify  | 0.050776   | 0.050776   | 0.050776   |   0.0 |  2.40
Other   |            | 0.005818   |            |       |  0.27

Nlocal:            432 ave         432 max         432 min
Histogram: 1 0 0 0 0 0 0 0 0 0
Nghost:           1744 ave        1744 max        1744 min
Histogram: 1 0 0 0 0 0 0 0 0 0
Neighs:          17287 ave       17287 max       17287 min
Histogram: 1 0 0 0 0 0 0 0 0 0
FullNghs:        34574 ave       34574 max       34574 min
Histogram: 1 0 0 0 0 0 0 0 0 0

Total # of neighbors = 34574
Ave neighs/atom = 80.032407
Neighbor list builds = 4
Dangerous builds = 0
Minimized PE/atom: -3.35020885353392 eV/atom
=== STAGE 2: NPT Equilibration at 200 K ===
No /omp style for force computation currently active
Setting up Verlet run ...
  Unit style    : metal
  Current step  : 0
  Time step     : 0.002
Per MPI rank memory allocation (min/avg/max) = 18.22 | 18.22 | 18.22 Mbytes
   Step          Temp          PotEng         KinEng         TotEng         Press          Volume           Lx             Ly             Lz      
         0   200           -1447.2902      11.142224     -1436.148      -45372.396      11372.41       15.901417      27.542063      25.966906    
       500   507.06624     -1647.8598      28.249229     -1619.6106      1144.0817      6541.1856      13.224233      22.905043      21.595082    
      1000   193.57864     -1694.03        10.784484     -1683.2455     -1013.8248      6205.0215      12.993698      22.505745      21.21862     
      1500   216.3456      -1701.8185      12.052856     -1689.7656      1816.2338      6157.8346      12.960677      22.44855       21.164696    
      2000   199.20789     -1702.7258      11.098095     -1691.6277      152.66668      6171.4984      12.970256      22.465142      21.180339    
      2500   181.11747     -1704.0613      10.090258     -1693.971       4643.0265      6137.8124      12.946614      22.424193      21.141732    
      3000   198.18692     -1704.0514      11.041216     -1693.0102      996.37002      6162.4089      12.963885      22.454108      21.169936    
      3500   198.57898     -1706.0761      11.063058     -1695.0131     -2939.1642      6157.916       12.960734      22.448649      21.16479     
      4000   194.85057     -1706.9802      10.855344     -1696.1249     -1786.2405      6140.5314      12.948526      22.427504      21.144854    
      4500   192.97202     -1707.6646      10.750688     -1696.9139      95.323742      6129.9924      12.941114      22.414666      21.13275     
      5000   209.65582     -1707.4285      11.680161     -1695.7483     -2117.8259      6144.645       12.951416      22.432511      21.149574    
      5500   204.67992     -1707.8045      11.402948     -1696.4016     -1239.3757      6108.9039      12.926256      22.388933      21.108488    
      6000   192.91782     -1708.9714      10.747668     -1698.2237     -502.55734      6125.2929      12.937806      22.408937      21.127348    
      6500   192.30907     -1709.5681      10.713754     -1698.8543     -515.24088      6100.0761      12.920027      22.378143      21.098316    
      7000   209.77954     -1709.7186      11.687054     -1698.0316     -789.19634      6114.5056      12.930206      22.395774      21.114938    
      7500   205.29862     -1710.9537      11.437417     -1699.5162      1092.0251      6105.6677      12.923973      22.384979      21.10476     
      8000   204.58231     -1710.8671      11.39751      -1699.4696      4520.1362      6084.0959      12.908735      22.358585      21.079876    
      8500   196.37669     -1710.793       10.940366     -1699.8526      1830.1527      6095.0666      12.916489      22.372016      21.092539    
      9000   192.12099     -1711.293       10.703276     -1700.5897      1129.2861      6091.3103      12.913835      22.367419      21.088205    
      9500   190.65496     -1711.6         10.621602     -1700.9784      2150.7199      6094.7655      12.916277      22.371647      21.092191    
     10000   211.60204     -1711.6013      11.788587     -1699.8127      721.08776      6106.1568      12.924319      22.385576      21.105324    
     10500   201.17164     -1711.4498      11.207498     -1700.2423      2150.6021      6101.7832      12.921232      22.38023       21.100284    
     11000   191.0516      -1712.4027      10.643699     -1701.759      -3352.0053      6139.5489      12.947835      22.426308      21.143726    
     11500   192.40139     -1712.6594      10.718897     -1701.9405     -550.48263      6114.8383      12.930441      22.39618       21.115321    
     12000   210.67077     -1713.0457      11.736705     -1701.309      -852.39771      6132.0759      12.94258       22.417205      21.135144    
     12500   212.58156     -1713.4681      11.843157     -1701.625      -1287.5591      6082.877       12.907873      22.357092      21.078468    
     13000   184.28365     -1714.8701      10.266649     -1704.6035     -3243.9738      6099.8842      12.919892      22.377909      21.098094    
     13500   197.77958     -1715.5349      11.018523     -1704.5164     -1650.9459      6075.7158      12.902806      22.348315      21.070193    
     14000   205.47113     -1715.5034      11.447027     -1704.0564      1288.8688      6069.7241      12.898563      22.340966      21.063265    
     14500   216.5777      -1716.1926      12.065787     -1704.1268      456.62976      6044.1702      12.880436      22.30957       21.033664    
     15000   201.64396     -1718.1584      11.233811     -1706.9246     -525.03161      6053.8613      12.887316      22.321487      21.0449      
     15500   211.64118     -1718.0528      11.790768     -1706.2621     -3378.2789      6065.1826      12.895345      22.335393      21.05801     
     16000   205.89179     -1717.6453      11.470462     -1706.1749      3369.2206      6041.9483      12.878857      22.306835      21.031086    
     16500   208.07988     -1718.1882      11.592364     -1706.5958     -1180.5195      6062.2624      12.893275      22.331807      21.05463     
     17000   195.51129     -1717.9961      10.892154     -1707.104       2280.769       6042.2907      12.879101      22.307257      21.031483    
     17500   189.18576     -1716.7586      10.539751     -1706.2188      2251.6381      6032.856       12.872394      22.29564       21.020531    
     18000   206.28481     -1717.8855      11.492358     -1706.3931     -1140.1036      6052.7605      12.886535      22.320134      21.043624    
     18500   203.31633     -1717.4151      11.326981     -1706.0881     -921.57597      6067.0022      12.896634      22.337626      21.060116    
     19000   198.54057     -1718.1172      11.060918     -1707.0563     -78.621156      6035.8416      12.874517      22.299318      21.023998    
     19500   200.19952     -1717.0455      11.15334      -1705.8922      1018.9757      6051.1544      12.885395      22.318159      21.041762    
     20000   212.68001     -1716.9845      11.848642     -1705.1359      2873.7491      6030.1942      12.8705        22.292361      21.017439    
Loop time of 240.248 on 8 procs for 20000 steps with 432 atoms

Performance: 14.385 ns/day, 1.668 hours/ns, 83.247 timesteps/s, 35.963 katom-step/s
96.3% CPU use with 1 MPI tasks x 8 OpenMP threads

MPI task timing breakdown:
Section |  min time  |  avg time  |  max time  |%varavg| %total
---------------------------------------------------------------
Pair    | 217.37     | 217.37     | 217.37     |   0.0 | 90.48
Neigh   | 0.016895   | 0.016895   | 0.016895   |   0.0 |  0.01
Comm    | 0.28668    | 0.28668    | 0.28668    |   0.0 |  0.12
Output  | 0.00398    | 0.00398    | 0.00398    |   0.0 |  0.00
Modify  | 22.51      | 22.51      | 22.51      |   0.0 |  9.37
Other   |            | 0.06321    |            |       |  0.03

Nlocal:            432 ave         432 max         432 min
Histogram: 1 0 0 0 0 0 0 0 0 0
Nghost:           2526 ave        2526 max        2526 min
Histogram: 1 0 0 0 0 0 0 0 0 0
Neighs:          32865 ave       32865 max       32865 min
Histogram: 1 0 0 0 0 0 0 0 0 0
FullNghs:        65730 ave       65730 max       65730 min
Histogram: 1 0 0 0 0 0 0 0 0 0

Total # of neighbors = 65730
Ave neighs/atom = 152.15278
Neighbor list builds = 20
Dangerous builds = 0
=== STAGE 3: NPT Production at 200 K ===
No /omp style for force computation currently active
Setting up Verlet run ...
  Unit style    : metal
  Current step  : 0
  Time step     : 0.001
Per MPI rank memory allocation (min/avg/max) = 18.58 | 18.58 | 18.58 Mbytes
   Step          Temp          PotEng         KinEng         TotEng         Press          Volume           Lx             Ly             Lz      
         0   212.68001     -1716.9845      11.848642     -1705.1359      2873.7491      6030.1942      12.8705        22.292361      21.017439    
       500   213.12592     -1717.703       11.873484     -1705.8295     -35.822541      6053.766       12.887249      22.32137       21.044789    
      1000   192.57775     -1717.4755      10.728723     -1706.7468      1474.2015      6024.3449      12.866338      22.28515       21.010641    
      1500   188.53377     -1717.3079      10.503428     -1706.8045     -1913.2062      6075.0976      12.902368      22.347557      21.069479    
      2000   197.11076     -1718.6381      10.981262     -1707.6568     -693.26373      6046.7414      12.882262      22.312733      21.036646    
      2500   185.68593     -1718.2503      10.344772     -1707.9056      4121.8328      5989.167       12.841245      22.241689      20.969666    
      3000   208.57204     -1718.6154      11.619782     -1706.9957      1847.0794      6011.2179      12.856986      22.268952      20.99537     
      3500   210.02577     -1718.2797      11.700771     -1706.5789      3512.8535      6004.9997      12.852551      22.261271      20.988128    
      4000   196.15828     -1718.5368      10.928198     -1707.6086     -754.91608      6022.4307      12.864975      22.28279       21.008416    
      4500   187.17075     -1718.7568      10.427492     -1708.3293      622.3208       6029.9971      12.87036       22.292118      21.01721     
      5000   202.35167     -1718.4924      11.273238     -1707.2192      756.19635      6008.1531      12.8548        22.265167      20.991801    
      5500   193.61617     -1718.1274      10.786574     -1707.3408      783.29901      6021.8877      12.864588      22.28212       21.007784    
      6000   201.31107     -1719.2088      11.215266     -1707.9935     -2063.8636      6045.9217      12.88168       22.311724      21.035695    
      6500   201.66718     -1718.9659      11.235105     -1707.7308     -289.72424      6029.111       12.86973       22.291026      21.016181    
      7000   219.50217     -1717.7219      12.228712     -1705.4932     -4173.942       6063.0642      12.893843      22.332792      21.055558    
      7500   207.2178      -1718.9719      11.544336     -1707.4275     -5.3486177      6028.7541      12.869476      22.290586      21.015766    
      8000   197.22716     -1718.4289      10.987746     -1707.4412     -2408.0065      6061.7089      12.892883      22.331128      21.053989    
      8500   195.56839     -1718.6762      10.895335     -1707.7809      452.64701      6035.0692      12.873968      22.298366      21.023101    
      9000   195.30706     -1718.1005      10.880776     -1707.2198     -4313.4234      6059.4256      12.891264      22.328323      21.051345    
      9500   215.93579     -1718.8891      12.030025     -1706.8591      1800.2012      6006.3524      12.853516      22.262943      20.989704    
     10000   188.89835     -1718.7532      10.523739     -1708.2294      149.61595      6027.6787      12.868711      22.289261      21.014516    
     10500   197.75505     -1719.3923      11.017156     -1708.3751      3024.175       5990.8415      12.842442      22.243762      20.97162     
     11000   196.52947     -1718.3892      10.948877     -1707.4404     -3092.023       6039.2092      12.876911      22.303464      21.027908    
     11500   194.89359     -1718.0388      10.85774      -1707.181      -1203.0506      6008.7313      12.855213      22.265881      20.992474    
     12000   195.28428     -1719.6401      10.879507     -1708.7606      2750.7506      6005.9779      12.853249      22.26248       20.989267    
     12500   191.88655     -1718.2847      10.690215     -1707.5944      4861.5055      6004.3009      12.852052      22.260408      20.987314    
     13000   192.26666     -1718.4339      10.711391     -1707.7226     -2548.2177      6029.5463      12.87004       22.291562      21.016687    
     13500   199.13619     -1718.722       11.094101     -1707.6279     -476.12479      6013.3167      12.858482      22.271544      20.997813    
     14000   225.47865     -1718.6664      12.561668     -1706.1047     -817.17338      6019.5402      12.862916      22.279224      21.005054    
     14500   200.28508     -1718.2979      11.158106     -1707.1398     -412.25213      6031.2009      12.871217      22.293601      21.018609    
     15000   204.58446     -1718.623       11.39763      -1707.2254     -701.00877      6017.0976      12.861176      22.276211      21.002213    
     15500   200.67778     -1720.0206      11.179984     -1708.8407     -1615.7831      6038.497       12.876405      22.302587      21.027081    
     16000   195.26223     -1719.54        10.878278     -1708.6618      2943.5856      6001.7623      12.850241      22.25727       20.984355    
     16500   195.4929      -1718.2097      10.891129     -1707.3185     -362.05844      6037.7009      12.875839      22.301607      21.026157    
     17000   195.12185     -1718.4873      10.870457     -1707.6168     -1685.0486      6029.763       12.870194      22.291829      21.016938    
     17500   200.36457     -1719.4607      11.162535     -1708.2981      2041.6959      6003.1253      12.851213      22.258955      20.985944    
     18000   194.99498     -1719.6294      10.863389     -1708.766       1677.9375      6016.2875      12.860599      22.275211      21.00127     
     18500   201.88391     -1719.7111      11.247179     -1708.4639     -1308.5493      6027.9521      12.868905      22.289598      21.014834    
     19000   221.42544     -1719.2657      12.33586      -1706.9298     -3201.3882      6045.329       12.881259      22.310995      21.035008    
     19500   208.93543     -1718.8675      11.640027     -1707.2275      3912.3103      5983.8857      12.83747       22.23515       20.9635      
     20000   197.49226     -1719.36        11.002515     -1708.3574     -1334.4504      6031.5202      12.871444      22.293995      21.01898     
     20500   200.44365     -1719.8543      11.166941     -1708.6874     -2331.7372      6016.2527      12.860574      22.275168      21.00123     
     21000   205.44225     -1718.239       11.445418     -1706.7936     -3522.4426      6061.3325      12.892616      22.330665      21.053553    
     21500   227.0976      -1719.5181      12.651862     -1706.8663     -2525.108       6030.5322      12.870741      22.292777      21.017832    
     22000   211.88605     -1719.2566      11.80441      -1707.4522      122.73715      6037.8766      12.875964      22.301823      21.026361    
     22500   205.45026     -1719.2992      11.445864     -1707.8533      459.88216      6024.8078      12.866667      22.285721      21.011179    
     23000   201.62102     -1719.4864      11.232533     -1708.2539      263.03622      6025.8246      12.867391      22.286975      21.012361    
     23500   195.7201      -1719.8251      10.903787     -1708.9213      1294.59        6024.4471      12.86641       22.285277      21.01076     
     24000   192.91495     -1719.8597      10.747509     -1709.1122      201.47831      6020.3664      12.863505      22.280244      21.006015    
     24500   198.6261      -1719.058       11.065683     -1707.9923      172.12629      6014.7847      12.859528      22.273356      20.999521    
     25000   201.27799     -1720.0122      11.213423     -1708.7987      557.07666      6023.929       12.866042      22.284638      21.010158    
     25500   180.54022     -1719.5262      10.058099     -1709.4681      995.03566      6023.0661      12.865427      22.283574      21.009155    
     26000   204.06192     -1720.1472      11.368519     -1708.7787      3127.803       5999.6921      12.848763      22.254711      20.981942    
     26500   200.96005     -1719.6519      11.19571      -1708.4562      3282.3232      6021.874       12.864578      22.282103      21.007769    
     27000   220.0394      -1718.5977      12.258642     -1706.3391     -3031.1062      6074.9509      12.902264      22.347377      21.069309    
     27500   203.43055     -1719.5225      11.333345     -1708.1891      452.95938      6027.2426      12.8684        22.288723      21.01401     
     28000   197.17049     -1719.7969      10.984589     -1708.8123      6438.3451      5991.0323      12.842578      22.243998      20.971843    
     28500   183.30021     -1719.8274      10.21186      -1709.6155     -546.9439       6023.8656      12.865996      22.28456       21.010084    
     29000   203.47964     -1719.8418      11.336079     -1708.5057      854.23899      6039.6162      12.8772        22.303965      21.02838     
     29500   201.40321     -1719.1915      11.220399     -1707.9711     -1474.4966      6043.1075      12.879681      22.308262      21.032431    
     30000   194.70344     -1719.7705      10.847147     -1708.9234     -1820.1737      6036.6367      12.875082      22.300297      21.024921    
     30500   185.46848     -1720.1356      10.332657     -1709.803       213.14877      6031.072       12.871125      22.293442      21.018459    
     31000   203.5424      -1719.4349      11.339575     -1708.0953     -1118.8779      6032.1593      12.871898      22.294782      21.019722    
     31500   201.57536     -1719.5215      11.229989     -1708.2915      2683.8205      6003.9509      12.851803      22.259975      20.986906    
     32000   200.40898     -1720.322       11.165009     -1709.157       1279.1899      6018.523       12.862192      22.277969      21.003871    
     32500   200.74835     -1719.8588      11.183916     -1708.6749     -965.0331       6027.4794      12.868569      22.289015      21.014285    
     33000   203.50046     -1719.4516      11.337239     -1708.1143     -2843.8994      6023.4943      12.865732      22.284102      21.009653    
     33500   188.45538     -1719.9476      10.499061     -1709.4485      1472.3068      6024.816       12.866673      22.285731      21.011189    
     34000   196.12338     -1720.5326      10.926253     -1709.6063     -1514.54        6018.8777      12.862444      22.278407      21.004284    
     34500   207.15769     -1720.7348      11.540987     -1709.1938      456.26606      6009.3628      12.855663      22.266661      20.99321     
     35000   196.25198     -1719.6762      10.933418     -1708.7427     -1994.9884      6040.5124      12.877837      22.305068      21.02942     
     35500   202.06171     -1719.5904      11.257085     -1708.3333     -3916.73        6033.4242      12.872798      22.29634       21.021191    
     36000   206.42422     -1719.911       11.500125     -1708.4109     -668.3389       6024.4555      12.866416      22.285287      21.01077     
     36500   196.45121     -1719.8357      10.944518     -1708.8912     -1883.7924      6037.599       12.875766      22.301482      21.026039    
     37000   192.04627     -1720.6028      10.699113     -1709.9037      2522.6526      5999.8403      12.848869      22.254894      20.982115    
     37500   200.99365     -1719.8095      11.197582     -1708.6119     -4113.9477      6061.6304      12.892827      22.331031      21.053898    
     38000   199.65481     -1719.7738      11.122994     -1708.6508      3627.3019      6011.0148      12.856841      22.268702      20.995133    
     38500   206.5931      -1719.7621      11.509533     -1708.2526      4037.3177      6004.4714      12.852174      22.260618      20.987512    
     39000   208.74929     -1719.0844      11.629657     -1707.4547      935.38069      6017.6774      12.861589      22.276926      21.002887    
     39500   201.58713     -1719.6674      11.230645     -1708.4367      1062.7381      6025.4276      12.867108      22.286486      21.0119      
     40000   193.35841     -1719.8937      10.772214     -1709.1215     -468.61715      6024.5901      12.866512      22.285453      21.010926    
     40500   202.60693     -1720.2954      11.28746      -1709.0079     -3632.4083      6043.4146      12.879899      22.30864       21.032787    
     41000   209.27695     -1719.6601      11.659054     -1708.0011      3293.063       5997.3503      12.847091      22.251815      20.979212    
     41500   208.16044     -1719.4617      11.596852     -1707.8649     -1942.3645      6030.1047      12.870437      22.29225       21.017335    
     42000   201.28343     -1720.2818      11.213726     -1709.0681      2520.9948      5987.6813      12.840183      22.23985       20.967932    
     42500   191.12765     -1720.5339      10.647936     -1709.886      -2894.5945      6033.2314      12.872661      22.296103      21.020967    
     43000   201.15723     -1720.6241      11.206695     -1709.4174     -1380.6085      6027.8695      12.868846      22.289496      21.014738    
     43500   191.65432     -1720.9595      10.677277     -1710.2822     -1763.7079      6021.0992      12.864027      22.281148      21.006868    
     44000   201.42536     -1721.2224      11.221633     -1710.0007     -1460.8889      6027.6095      12.868661      22.289175      21.014436    
     44500   187.61438     -1721.3015      10.452208     -1710.8493     -6044.8966      6037.0474      12.875374      22.300803      21.025398    
     45000   210.78718     -1721.6569      11.74319      -1709.9137      1826.9046      5995.194       12.845551      22.249148      20.976697    
     45500   199.86924     -1720.8751      11.13494      -1709.7402     -2775.7329      6035.5637      12.874319      22.298975      21.023676    
     46000   189.32529     -1721.0685      10.547525     -1710.521       3848.4151      6001.8778      12.850323      22.257413      20.98449     
     46500   196.72872     -1721.5023      10.959978     -1710.5423      2581.4598      5987.6067      12.84013       22.239758      20.967845    
     47000   203.57684     -1721.3847      11.341494     -1710.0432     -1084.1538      6021.9802      12.864654      22.282234      21.007892    
     47500   203.96509     -1721.009       11.363124     -1709.6459      988.50962      6017.8957      12.861745      22.277195      21.003141    
     48000   195.62799     -1721.29        10.898655     -1710.3914     -1413.1774      6023.4682      12.865714      22.284069      21.009622    
     48500   188.80872     -1721.4282      10.518746     -1710.9095      1988.8836      6009.299       12.855617      22.266583      20.993135    
     49000   199.82232     -1721.1691      11.132326     -1710.0368      608.20046      6021.5258      12.86433       22.281674      21.007364    
     49500   203.42718     -1720.738       11.333157     -1709.4049     -506.63344      6024.3747      12.866359      22.285187      21.010676    
     50000   207.25212     -1721.7504      11.546248     -1710.2041      5881.3774      5993.5713      12.844392      22.24714       20.974805    
Loop time of 580.425 on 8 procs for 50000 steps with 432 atoms

Performance: 7.443 ns/day, 3.225 hours/ns, 86.144 timesteps/s, 37.214 katom-step/s
96.6% CPU use with 1 MPI tasks x 8 OpenMP threads

MPI task timing breakdown:
Section |  min time  |  avg time  |  max time  |%varavg| %total
---------------------------------------------------------------
Pair    | 524.92     | 524.92     | 524.92     |   0.0 | 90.44
Neigh   | 0.001959   | 0.001959   | 0.001959   |   0.0 |  0.00
Comm    | 0.69049    | 0.69049    | 0.69049    |   0.0 |  0.12
Output  | 0.008499   | 0.008499   | 0.008499   |   0.0 |  0.00
Modify  | 54.662     | 54.662     | 54.662     |   0.0 |  9.42
Other   |            | 0.1427     |            |       |  0.02

Nlocal:            432 ave         432 max         432 min
Histogram: 1 0 0 0 0 0 0 0 0 0
Nghost:           2506 ave        2506 max        2506 min
Histogram: 1 0 0 0 0 0 0 0 0 0
Neighs:          32767 ave       32767 max       32767 min
Histogram: 1 0 0 0 0 0 0 0 0 0
FullNghs:        65534 ave       65534 max       65534 min
Histogram: 1 0 0 0 0 0 0 0 0 0

Total # of neighbors = 65534
Ave neighs/atom = 151.69907
Neighbor list builds = 2
Dangerous builds = 0

=== FINAL RESULTS: DHCP at 200 K ===
Atoms: 432 | PE/atom: -3.98413277359843 eV/atom
WARNING: Detected non-ASCII characters in input. Will try to continue by replacing with ASCII equivalents where known. (src/input.cpp:479)
Volume: 5993.57130755435 …³ | Area: 285.750993798272 ²
==========================================
DHCP 200 432 -3.98413277359843 5993.57130755435 12.8443922871541 22.2471400288869 20.9748047693074 285.750993798272
Simulation complete!
Total wall time: 0:13:42
