LAMMPS (10 Sep 2025)
  using 8 OpenMP thread(s) per MPI task
Loaded 1 plugins from C:\Users\kumar\AppData\Local\LAMMPS 64-bit 10Sep2025\plugins
using multi-threaded neighbor list subroutines
Reading data file ...
  orthogonal box = (0 0 0) to (22.488 22.488 22.488)
  1 by 1 by 1 MPI processor grid
  reading atoms ...
  864 atoms
  read_data CPU = 0.007 seconds
=== STAGE 1: Energy Minimization ===
Switching to 'neigh_modify every 1 delay 0 check yes' setting during minimization
No /omp style for force computation currently active
Neighbor list info ...
  update: every = 1 steps, delay = 0 steps, check = yes
  max neighbors/atom: 4000, page size: 100000
  master list distance cutoff = 8
  ghost atom cutoff = 8
  binsize = 4, bins = 6 6 6
  2 neighbor lists, perpetual/occasional/extra = 2 0 0
  (1) pair meam, perpetual
      attributes: full, newton on, omp
      pair build: full/bin/atomonly/omp
      stencil: full/bin/3d
      bin: standard
  (2) pair meam, perpetual, half/full from (1)
      attributes: half, newton on, omp
      pair build: halffull/newton/omp
      stencil: none
      bin: none
Setting up cg style minimization ...
  Unit style    : metal
  Current step  : 0
Per MPI rank memory allocation (min/avg/max) = 21.26 | 21.26 | 21.26 Mbytes
   Step          Temp          PotEng         KinEng         TotEng         Press          Volume           Lx             Ly             Lz      
         0   0             -3267.6251      0             -3267.6251      11862.577      11372.41       22.488         22.488         22.488       
        23   0             -3388.5931      0             -3388.5931      10435.666      11372.41       22.488         22.488         22.488       
Loop time of 1.59308 on 8 procs for 23 steps with 864 atoms

98.1% CPU use with 1 MPI tasks x 8 OpenMP threads

Minimization stats:
  Stopping criterion = energy tolerance
  Energy initial, next-to-last, final = 
     -3267.62505586225  -3388.59270923369  -3388.59306828149
  Force two-norm initial, final = 67.5534 19.794838
  Force max component initial, final = 5.765539 5.9489041
  Final line search alpha, max atom move = 0.035432063 0.21078194
  Iterations, force evaluations = 23 57

MPI task timing breakdown:
Section |  min time  |  avg time  |  max time  |%varavg| %total
---------------------------------------------------------------
Pair    | 1.5808     | 1.5808     | 1.5808     |   0.0 | 99.23
Neigh   | 0          | 0          | 0          |   0.0 |  0.00
Comm    | 0.001671   | 0.001671   | 0.001671   |   0.0 |  0.10
Output  | 0          | 0          | 0          |   0.0 |  0.00
Modify  | 0.009302   | 0.009302   | 0.009302   |   0.0 |  0.58
Other   |            | 0.001302   |            |       |  0.08

Nlocal:            864 ave         864 max         864 min
Histogram: 1 0 0 0 0 0 0 0 0 0
Nghost:           3767 ave        3767 max        3767 min
Histogram: 1 0 0 0 0 0 0 0 0 0
Neighs:          76032 ave       76032 max       76032 min
Histogram: 1 0 0 0 0 0 0 0 0 0
FullNghs:       152064 ave      152064 max      152064 min
Histogram: 1 0 0 0 0 0 0 0 0 0

Total # of neighbors = 152064
Ave neighs/atom = 176
Neighbor list builds = 0
Dangerous builds = 0
Minimized PE/atom: -3.92198271791839 eV/atom
=== STAGE 2: NPT Equilibration at 200 K ===
No /omp style for force computation currently active
Setting up Verlet run ...
  Unit style    : metal
  Current step  : 0
  Time step     : 0.002
Per MPI rank memory allocation (min/avg/max) = 20.14 | 20.14 | 20.14 Mbytes
   Step          Temp          PotEng         KinEng         TotEng         Press          Volume           Lx             Ly             Lz      
         0   200           -3388.5931      22.310301     -3366.2828      12531.091      11372.41       22.488         22.488         22.488       
       500   203.04054     -3380.304       22.649478     -3357.6545      2529.691       11682.774      22.69074       22.69074       22.69074     
      1000   201.28582     -3381.1826      22.453736     -3358.7288      426.83633      11699.302      22.701436      22.701436      22.701436    
      1500   200.90312     -3382.0233      22.411046     -3359.6122      296.97265      11693.234      22.69751       22.69751       22.69751     
      2000   197.98483     -3382.4663      22.085506     -3360.3807      2103.2432      11662.063      22.677323      22.677323      22.677323    
      2500   204.71611     -3383.4107      22.83639      -3360.5743     -1771.3538      11706.151      22.705865      22.705865      22.705865    
      3000   203.69515     -3383.7616      22.7225       -3361.0391      225.93694      11682.914      22.69083       22.69083       22.69083     
      3500   203.11426     -3382.9438      22.657702     -3360.2861     -1608.2196      11732.092      22.722624      22.722624      22.722624    
      4000   213.99319     -3384.0126      23.871263     -3360.1413      2396.9333      11672.284      22.683946      22.683946      22.683946    
      4500   202.57933     -3384.964       22.598029     -3362.366       650.74377      11696.846      22.699847      22.699847      22.699847    
      5000   199.74504     -3385.0046      22.28186      -3362.7228      3319.1447      11650.038      22.669526      22.669526      22.669526    
      5500   208.30971     -3384.2613      23.237261     -3361.0241     -8.0164081      11694.654      22.698428      22.698428      22.698428    
      6000   209.80008     -3384.9472      23.403514     -3361.5437      2581.3474      11671.388      22.683366      22.683366      22.683366    
      6500   201.85366     -3386.2446      22.517079     -3363.7275     -599.57542      11707.037      22.706438      22.706438      22.706438    
      7000   202.29718     -3385.5524      22.566554     -3362.9858     -781.61131      11694.465      22.698306      22.698306      22.698306    
      7500   199.11678     -3384.7507      22.211777     -3362.5389      2006.1669      11680.558      22.689305      22.689305      22.689305    
      8000   206.79317     -3385.1817      23.068089     -3362.1136      897.98429      11703.617      22.704226      22.704226      22.704226    
      8500   208.14131     -3386.6002      23.218476     -3363.3817      792.07924      11692.019      22.696724      22.696724      22.696724    
      9000   203.34852     -3386.741       22.683833     -3364.0572      462.14329      11699.713      22.701701      22.701701      22.701701    
      9500   203.42315     -3385.9748      22.692158     -3363.2827     -858.38871      11703.93       22.704428      22.704428      22.704428    
     10000   202.82585     -3384.6694      22.625529     -3362.0439      1378.3203      11703.373      22.704068      22.704068      22.704068    
     10500   198.61554     -3385.0566      22.155863     -3362.9007     -1854.8468      11721.755      22.715949      22.715949      22.715949    
     11000   195.54        -3386.0703      21.812781     -3364.2575     -725.82333      11717.255      22.713042      22.713042      22.713042    
     11500   196.14057     -3385.9597      21.879776     -3364.0799     -829.06164      11720.345      22.715038      22.715038      22.715038    
     12000   204.20547     -3385.9423      22.779428     -3363.1629      3344.2966      11653.8        22.671966      22.671966      22.671966    
     12500   205.18451     -3385.8366      22.888641     -3362.9479      3262.592       11707.205      22.706546      22.706546      22.706546    
     13000   206.44433     -3386.5599      23.029176     -3363.5308     -1415.1374      11719.414      22.714436      22.714436      22.714436    
     13500   202.77327     -3388.3333      22.619663     -3365.7136     -1328.5047      11725.27       22.718219      22.718219      22.718219    
     14000   190.74567     -3385.9028      21.277967     -3364.6248      894.47948      11696.58       22.699674      22.699674      22.699674    
     14500   206.72306     -3386.8961      23.060269     -3363.8358     -420.12153      11705.325      22.70533       22.70533       22.70533     
     15000   193.73698     -3386.7337      21.611652     -3365.1221      460.74949      11700.876      22.702453      22.702453      22.702453    
     15500   192.72215     -3385.8634      21.498446     -3364.3649     -885.93671      11737.475      22.726099      22.726099      22.726099    
     16000   213.4373      -3385.6948      23.809252     -3361.8856     -1630.1238      11741.654      22.728796      22.728796      22.728796    
     16500   202.78333     -3386.2391      22.620786     -3363.6183     -3649.165       11762.841      22.742458      22.742458      22.742458    
     17000   199.25917     -3386.4908      22.22766      -3364.2632     -79.473364      11687.042      22.693503      22.693503      22.693503    
     17500   204.03048     -3386.8668      22.759907     -3364.1069      1234.0418      11691.47       22.696369      22.696369      22.696369    
     18000   209.7937      -3385.6121      23.402802     -3362.2093     -904.84448      11714.036      22.710961      22.710961      22.710961    
     18500   201.761       -3385.3541      22.506743     -3362.8473      138.944        11701.661      22.702961      22.702961      22.702961    
     19000   197.70857     -3385.5396      22.054688     -3363.4849      1352.9401      11696.494      22.699619      22.699619      22.699619    
     19500   199.2394      -3386.5254      22.225454     -3364.3         1772.4922      11694.475      22.698313      22.698313      22.698313    
     20000   194.66716     -3387.5015      21.715415     -3365.786      -999.79095      11711.325      22.709209      22.709209      22.709209    
Loop time of 469.588 on 8 procs for 20000 steps with 864 atoms

Performance: 7.360 ns/day, 3.261 hours/ns, 42.591 timesteps/s, 36.798 katom-step/s
96.3% CPU use with 1 MPI tasks x 8 OpenMP threads

MPI task timing breakdown:
Section |  min time  |  avg time  |  max time  |%varavg| %total
---------------------------------------------------------------
Pair    | 445.07     | 445.07     | 445.07     |   0.0 | 94.78
Neigh   | 0.003239   | 0.003239   | 0.003239   |   0.0 |  0.00
Comm    | 0.45748    | 0.45748    | 0.45748    |   0.0 |  0.10
Output  | 0.003962   | 0.003962   | 0.003962   |   0.0 |  0.00
Modify  | 23.971     | 23.971     | 23.971     |   0.0 |  5.10
Other   |            | 0.08422    |            |       |  0.02

Nlocal:            864 ave         864 max         864 min
Histogram: 1 0 0 0 0 0 0 0 0 0
Nghost:           3695 ave        3695 max        3695 min
Histogram: 1 0 0 0 0 0 0 0 0 0
Neighs:          68018 ave       68018 max       68018 min
Histogram: 1 0 0 0 0 0 0 0 0 0
FullNghs:       136036 ave      136036 max      136036 min
Histogram: 1 0 0 0 0 0 0 0 0 0

Total # of neighbors = 136036
Ave neighs/atom = 157.44907
Neighbor list builds = 2
Dangerous builds = 0
=== STAGE 3: NPT Production at 200 K ===
No /omp style for force computation currently active
Setting up Verlet run ...
  Unit style    : metal
  Current step  : 0
  Time step     : 0.001
Per MPI rank memory allocation (min/avg/max) = 20.14 | 20.14 | 20.14 Mbytes
   Step          Temp          PotEng         KinEng         TotEng         Press          Volume           Lx             Ly             Lz      
         0   194.66716     -3387.5015      21.715415     -3365.786      -999.79095      11711.325      22.709209      22.709209      22.709209    
       500   198.79265     -3387.2464      22.175619     -3365.0708      1811.294       11687.501      22.6938        22.6938        22.6938      
      1000   202.06998     -3386.2705      22.541211     -3363.7292     -13.815772      11704.596      22.704859      22.704859      22.704859    
      1500   200.03706     -3385.6103      22.314435     -3363.2959     -1232.7234      11739.733      22.727556      22.727556      22.727556    
      2000   202.22618     -3385.2545      22.558635     -3362.6958     -1193.0837      11727.095      22.719398      22.719398      22.719398    
      2500   198.58957     -3386.3684      22.152965     -3364.2155     -302.47595      11733.73       22.723682      22.723682      22.723682    
      3000   196.49265     -3386.3376      21.919051     -3364.4185     -1881.2805      11726.145      22.718784      22.718784      22.718784    
      3500   198.72697     -3386.5171      22.168292     -3364.3488     -266.32534      11692.376      22.696955      22.696955      22.696955    
      4000   208.21336     -3384.9999      23.226513     -3361.7734      1667.4219      11701.418      22.702804      22.702804      22.702804    
      4500   203.09191     -3385.7976      22.655209     -3363.1423     -425.11654      11735.771      22.724999      22.724999      22.724999    
      5000   199.63015     -3386.7739      22.269044     -3364.5049     -2766.3991      11757.204      22.738825      22.738825      22.738825    
      5500   196.44041     -3386.9008      21.913223     -3364.9875      967.31816      11708.71       22.707519      22.707519      22.707519    
      6000   193.89808     -3387.4413      21.629623     -3365.8117     -472.85509      11736.842      22.725691      22.725691      22.725691    
      6500   203.04507     -3385.9829      22.649983     -3363.333      -2134.1756      11722.87       22.716669      22.716669      22.716669    
      7000   197.15454     -3385.3009      21.992886     -3363.308      -419.29681      11725.182      22.718162      22.718162      22.718162    
      7500   205.04376     -3387.0121      22.872941     -3364.1391      1064.7173      11704.921      22.705069      22.705069      22.705069    
      8000   202.10766     -3387.0459      22.545414     -3364.5005      1449.66        11701.665      22.702964      22.702964      22.702964    
      8500   203.80343     -3386.8601      22.734579     -3364.1255      907.26236      11718.308      22.713722      22.713722      22.713722    
      9000   201.99526     -3385.4748      22.532876     -3362.9419      4044.1019      11660.052      22.67602       22.67602       22.67602     
      9500   210.27452     -3386.6258      23.456439     -3363.1694      2062.4534      11693.025      22.697375      22.697375      22.697375    
     10000   202.10857     -3386.805       22.545516     -3364.2595      1064.608       11684.713      22.691995      22.691995      22.691995    
     10500   194.02726     -3385.9386      21.644033     -3364.2946      936.02097      11687.981      22.694111      22.694111      22.694111    
     11000   201.16972     -3385.4676      22.440785     -3363.0268      1357.7846      11701.388      22.702784      22.702784      22.702784    
     11500   193.66744     -3387.3503      21.603895     -3365.7464      2000.9954      11688.411      22.694389      22.694389      22.694389    
     12000   200.41968     -3386.3261      22.357117     -3363.969      -1173.6301      11726.401      22.71895       22.71895       22.71895     
     12500   201.22907     -3386.6805      22.447406     -3364.2331     -855.64241      11694.772      22.698505      22.698505      22.698505    
     13000   200.76732     -3386.6808      22.395896     -3364.2849     -1031.4589      11721.089      22.715518      22.715518      22.715518    
     13500   200.60744     -3385.2989      22.378062     -3362.9209      47.977887      11732.65       22.722984      22.722984      22.722984    
     14000   205.2324      -3385.2771      22.893983     -3362.3831     -367.34938      11725.622      22.718446      22.718446      22.718446    
     14500   201.80027     -3386.8359      22.511123     -3364.3247     -1824.191       11747.483      22.732556      22.732556      22.732556    
     15000   195.37512     -3387.2727      21.794388     -3365.4783     -842.21698      11737.014      22.725802      22.725802      22.725802    
     15500   196.20673     -3386.8907      21.887156     -3365.0035      1276.4444      11713.403      22.710552      22.710552      22.710552    
     16000   199.14149     -3386.8609      22.214533     -3364.6464     -796.59955      11732.812      22.723089      22.723089      22.723089    
     16500   201.11712     -3387.4856      22.434917     -3365.0507     -3080.9951      11756.808      22.738569      22.738569      22.738569    
     17000   200.5688      -3386.5173      22.373751     -3364.1435     -1019.4736      11727.524      22.719675      22.719675      22.719675    
     17500   206.0046      -3386.0878      22.980124     -3363.1076      402.89984      11731.344      22.722142      22.722142      22.722142    
     18000   205.77026     -3386.7994      22.953982     -3363.8454      2993.7412      11679.252      22.688459      22.688459      22.688459    
     18500   202.38496     -3386.6924      22.576347     -3364.1161      1828.2801      11703.054      22.703862      22.703862      22.703862    
     19000   201.79801     -3387.3672      22.510872     -3364.8563     -449.67667      11739.428      22.727359      22.727359      22.727359    
     19500   200.35158     -3385.6519      22.34952      -3363.3024     -1026.3333      11735.13       22.724586      22.724586      22.724586    
     20000   198.08289     -3385.7864      22.096445     -3363.6899     -284.65623      11714.946      22.71155       22.71155       22.71155     
     20500   198.71218     -3386.4559      22.166643     -3364.2893      998.73613      11708.617      22.707459      22.707459      22.707459    
     21000   191.64017     -3386.4107      21.377749     -3365.0329     -88.289741      11740.854      22.728279      22.728279      22.728279    
     21500   197.53404     -3387.6719      22.035219     -3365.6367      697.48097      11715.335      22.711801      22.711801      22.711801    
     22000   195.55322     -3387.671       21.814256     -3365.8567      2809.6171      11694.156      22.698107      22.698107      22.698107    
     22500   201.60268     -3386.967       22.489083     -3364.4779      396.54726      11721.517      22.715795      22.715795      22.715795    
     23000   206.76671     -3387.3197      23.065138     -3364.2546      2683.255       11708.267      22.707233      22.707233      22.707233    
     23500   203.62544     -3388.0776      22.714725     -3365.3628      1032.5628      11723.079      22.716804      22.716804      22.716804    
     24000   188.92983     -3386.1965      21.075407     -3365.1211     -240.70609      11726.651      22.719111      22.719111      22.719111    
     24500   196.05801     -3385.7729      21.870566     -3363.9023     -195.38726      11728.273      22.720158      22.720158      22.720158    
     25000   189.5198      -3386.1113      21.141219     -3364.9701     -1223.3816      11755.463      22.737702      22.737702      22.737702    
     25500   199.19343     -3387.5674      22.220327     -3365.347       276.32956      11716.915      22.712822      22.712822      22.712822    
     26000   194.33986     -3387.9741      21.678904     -3366.2952      1449.2297      11722.808      22.716629      22.716629      22.716629    
     26500   203.08983     -3387.139       22.654976     -3364.484       140.87276      11725.473      22.71835       22.71835       22.71835     
     27000   205.92653     -3386.7723      22.971414     -3363.8009     -4302.776       11769.21       22.746562      22.746562      22.746562    
     27500   187.73911     -3387.3858      20.94258      -3366.4433      2445.7657      11679.479      22.688606      22.688606      22.688606    
     28000   201.48205     -3385.8454      22.475626     -3363.3698     -689.63425      11743.807      22.730185      22.730185      22.730185    
     28500   195.04763     -3386.3205      21.757857     -3364.5626      1515.4295      11719.49       22.714485      22.714485      22.714485    
     29000   195.60095     -3387.5281      21.819581     -3365.7085     -1917.6414      11756.295      22.738239      22.738239      22.738239    
     29500   188.50591     -3388.1042      21.028118     -3367.0761     -1227.3215      11724.945      22.718009      22.718009      22.718009    
     30000   215.01074     -3387.5835      23.984772     -3363.5987      56.830244      11713.414      22.71056       22.71056       22.71056     
     30500   206.96122     -3387.1954      23.086836     -3364.1085     -1468.4756      11739.27       22.727257      22.727257      22.727257    
     31000   199.97787     -3388.0799      22.307832     -3365.772      -89.625427      11719.889      22.714743      22.714743      22.714743    
     31500   200.39119     -3386.9325      22.353939     -3364.5785      1298.4282      11712.204      22.709777      22.709777      22.709777    
     32000   199.67775     -3386.7756      22.274353     -3364.5013      320.76         11713.924      22.710889      22.710889      22.710889    
     32500   200.07911     -3387.2262      22.319126     -3364.907       2462.4813      11687.387      22.693726      22.693726      22.693726    
     33000   194.66184     -3388.3314      21.714821     -3366.6166      775.34042      11707.403      22.706674      22.706674      22.706674    
     33500   199.86784     -3386.441       22.295559     -3364.1455      1612.1328      11694.372      22.698246      22.698246      22.698246    
     34000   194.81506     -3386.208       21.731913     -3364.4761     -1261.7097      11752.689      22.735914      22.735914      22.735914    
     34500   195.83191     -3387.5717      21.845344     -3365.7264     -2183.819       11739.917      22.727675      22.727675      22.727675    
     35000   208.50887     -3387.5881      23.259478     -3364.3287      810.81187      11714.787      22.711446      22.711446      22.711446    
     35500   206.06904     -3386.8052      22.987312     -3363.8179     -2855.6747      11751.96       22.735444      22.735444      22.735444    
     36000   203.52268     -3385.5543      22.703261     -3362.8511      261.42604      11717.094      22.712937      22.712937      22.712937    
     36500   207.45436     -3386.6543      23.141846     -3363.5124     -1754.0996      11753.068      22.736158      22.736158      22.736158    
     37000   200.05678     -3387.0348      22.316635     -3364.7182      1580.7439      11705.991      22.705761      22.705761      22.705761    
     37500   204.04081     -3388.463       22.76106      -3365.7019      236.29191      11720.865      22.715374      22.715374      22.715374    
     38000   192.86313     -3386.8108      21.514173     -3365.2967     -2170.5096      11771.487      22.748029      22.748029      22.748029    
     38500   202.00487     -3386.7774      22.533947     -3364.2434      607.43292      11717.143      22.712969      22.712969      22.712969    
     39000   192.92979     -3387.348       21.521609     -3365.8264      1637.7323      11705.952      22.705735      22.705735      22.705735    
     39500   195.41458     -3387.4326      21.798791     -3365.6339      1625.535       11704.988      22.705112      22.705112      22.705112    
     40000   195.77556     -3386.3642      21.839059     -3364.5252      1401.7722      11688.561      22.694486      22.694486      22.694486    
     40500   204.3059      -3385.8029      22.790631     -3363.0123     -2055.0291      11747.03       22.732264      22.732264      22.732264    
     41000   209.21217     -3386.5968      23.337932     -3363.2589      1575.984       11695.278      22.698833      22.698833      22.698833    
     41500   190.41668     -3385.7062      21.241267     -3364.4649     -528.9637       11733.774      22.72371       22.72371       22.72371     
     42000   203.43202     -3388.2694      22.693149     -3365.5762     -2713.3843      11762.042      22.741943      22.741943      22.741943    
     42500   197.37018     -3387.1285      22.01694      -3365.1115     -1355.821       11732.964      22.723187      22.723187      22.723187    
     43000   201.60155     -3386.9153      22.488957     -3364.4263     -1029.6566      11737.442      22.726078      22.726078      22.726078    
     43500   208.0001      -3386.7122      23.202724     -3363.5094      309.64704      11719.693      22.714616      22.714616      22.714616    
     44000   183.59876     -3387.498       20.480718     -3367.0172     -318.89433      11719.804      22.714688      22.714688      22.714688    
     44500   192.96718     -3387.1037      21.525779     -3365.578       2340.7776      11692.346      22.696935      22.696935      22.696935    
     45000   200.0209      -3386.9367      22.312632     -3364.6241      1366.7596      11698.787      22.701102      22.701102      22.701102    
     45500   196.33536     -3387.1151      21.901505     -3365.2136     -3119.9365      11752.033      22.735491      22.735491      22.735491    
     46000   190.97094     -3387.1385      21.303095     -3365.8354      271.34354      11708.033      22.707081      22.707081      22.707081    
     46500   198.49618     -3387.4235      22.142547     -3365.2809      2611.0341      11689.851      22.69532       22.69532       22.69532     
     47000   201.83413     -3386.9759      22.514901     -3364.461       2155.1081      11699.322      22.701448      22.701448      22.701448    
     47500   206.98985     -3386.9324      23.090029     -3363.8424      1787.9519      11713.28       22.710473      22.710473      22.710473    
     48000   205.18241     -3387.5806      22.888406     -3364.6922      1626.0248      11709.445      22.707994      22.707994      22.707994    
     48500   211.49388     -3387.9713      23.592461     -3364.3789      1149.6747      11714.377      22.711182      22.711182      22.711182    
     49000   207.22755     -3386.0946      23.116545     -3362.9781      904.78178      11709.425      22.707981      22.707981      22.707981    
     49500   203.61042     -3386.733       22.713049     -3364.0199      393.91783      11713.076      22.710341      22.710341      22.710341    
     50000   198.18815     -3387.3061      22.108187     -3365.1979     -419.46487      11724.526      22.717738      22.717738      22.717738    
Loop time of 1170.35 on 8 procs for 50000 steps with 864 atoms

Performance: 3.691 ns/day, 6.502 hours/ns, 42.722 timesteps/s, 36.912 katom-step/s
96.3% CPU use with 1 MPI tasks x 8 OpenMP threads

MPI task timing breakdown:
Section |  min time  |  avg time  |  max time  |%varavg| %total
---------------------------------------------------------------
Pair    | 1109       | 1109       | 1109       |   0.0 | 94.76
Neigh   | 0.001729   | 0.001729   | 0.001729   |   0.0 |  0.00
Comm    | 1.1358     | 1.1358     | 1.1358     |   0.0 |  0.10
Output  | 0.009093   | 0.009093   | 0.009093   |   0.0 |  0.00
Modify  | 60.021     | 60.021     | 60.021     |   0.0 |  5.13
Other   |            | 0.2027     |            |       |  0.02

Nlocal:            864 ave         864 max         864 min
Histogram: 1 0 0 0 0 0 0 0 0 0
Nghost:           3677 ave        3677 max        3677 min
Histogram: 1 0 0 0 0 0 0 0 0 0
Neighs:          68092 ave       68092 max       68092 min
Histogram: 1 0 0 0 0 0 0 0 0 0
FullNghs:       136184 ave      136184 max      136184 min
Histogram: 1 0 0 0 0 0 0 0 0 0

Total # of neighbors = 136184
Ave neighs/atom = 157.62037
Neighbor list builds = 1
Dangerous builds = 0

=== FINAL RESULTS: FCC at 200 K ===
Atoms: 864 | PE/atom: -3.91996941259843 eV/atom
WARNING: Detected non-ASCII characters in input. Will try to continue by replacing with ASCII equivalents where known. (src/input.cpp:479)
Volume: 11724.5257329305 …³ | Area: 516.095639161752 ²
==========================================
FCC 200 864 -3.91996941259843 11724.5257329305 22.7177384253308 22.7177384253308 22.7177384253308 516.095639161752
Simulation complete!
Total wall time: 0:27:21
