LAMMPS (10 Sep 2025)
  using 8 OpenMP thread(s) per MPI task
Loaded 1 plugins from C:\Users\kumar\AppData\Local\LAMMPS 64-bit 10Sep2025\plugins
using multi-threaded neighbor list subroutines
Reading data file ...
  orthogonal box = (0 0 0) to (15.901417 27.542063 25.966906)
  1 by 1 by 1 MPI processor grid
  reading atoms ...
  432 atoms
  read_data CPU = 0.003 seconds
=== STAGE 1: Energy Minimization ===
Switching to 'neigh_modify every 1 delay 0 check yes' setting during minimization
No /omp style for force computation currently active
Neighbor list info ...
  update: every = 1 steps, delay = 0 steps, check = yes
  max neighbors/atom: 4000, page size: 100000
  master list distance cutoff = 8
  ghost atom cutoff = 8
  binsize = 4, bins = 4 7 7
  2 neighbor lists, perpetual/occasional/extra = 2 0 0
  (1) pair meam, perpetual
      attributes: full, newton on, omp
      pair build: full/bin/atomonly/omp
      stencil: full/bin/3d
      bin: standard
  (2) pair meam, perpetual, half/full from (1)
      attributes: half, newton on, omp
      pair build: halffull/newton/omp
      stencil: none
      bin: none
Setting up cg style minimization ...
  Unit style    : metal
  Current step  : 0
Per MPI rank memory allocation (min/avg/max) = 19.38 | 19.38 | 19.38 Mbytes
   Step          Temp          PotEng         KinEng         TotEng         Press          Volume           Lx             Ly             Lz      
         0   0             -1142.9791      0             -1142.9791     -72580.319      11372.41       15.901417      27.542063      25.966906    
       146   0             -1436.4562      0             -1436.4562     -52537.823      11372.41       15.901417      27.542063      25.966906    
Loop time of 2.23015 on 8 procs for 146 steps with 432 atoms

93.2% CPU use with 1 MPI tasks x 8 OpenMP threads

Minimization stats:
  Stopping criterion = energy tolerance
  Energy initial, next-to-last, final = 
      -1142.9791119636  -1436.45559908323  -1436.45617518389
  Force two-norm initial, final = 26.206828 8.9009153
  Force max component initial, final = 4.6923109 2.6039103
  Final line search alpha, max atom move = 0.030637949 0.079778471
  Iterations, force evaluations = 146 348

MPI task timing breakdown:
Section |  min time  |  avg time  |  max time  |%varavg| %total
---------------------------------------------------------------
Pair    | 2.1681     | 2.1681     | 2.1681     |   0.0 | 97.22
Neigh   | 0.002958   | 0.002958   | 0.002958   |   0.0 |  0.13
Comm    | 0.004395   | 0.004395   | 0.004395   |   0.0 |  0.20
Output  | 0          | 0          | 0          |   0.0 |  0.00
Modify  | 0.048701   | 0.048701   | 0.048701   |   0.0 |  2.18
Other   |            | 0.006006   |            |       |  0.27

Nlocal:            432 ave         432 max         432 min
Histogram: 1 0 0 0 0 0 0 0 0 0
Nghost:           1797 ave        1797 max        1797 min
Histogram: 1 0 0 0 0 0 0 0 0 0
Neighs:          17399 ave       17399 max       17399 min
Histogram: 1 0 0 0 0 0 0 0 0 0
FullNghs:        34798 ave       34798 max       34798 min
Histogram: 1 0 0 0 0 0 0 0 0 0

Total # of neighbors = 34798
Ave neighs/atom = 80.550926
Neighbor list builds = 4
Dangerous builds = 0
Minimized PE/atom: -3.3251300351479 eV/atom
=== STAGE 2: NPT Equilibration at 200 K ===
No /omp style for force computation currently active
Setting up Verlet run ...
  Unit style    : metal
  Current step  : 0
  Time step     : 0.002
Per MPI rank memory allocation (min/avg/max) = 18.25 | 18.25 | 18.25 Mbytes
   Step          Temp          PotEng         KinEng         TotEng         Press          Volume           Lx             Ly             Lz      
         0   200           -1436.4562      11.142224     -1425.314      -51491.324      11372.41       15.901417      27.542063      25.966906    
       500   475.68147     -1628.6584      26.500749     -1602.1577     -2795.5171      6669.7263      13.310295      23.054107      21.73562     
      1000   210.0406      -1674.05        11.701598     -1662.3484      661.95337      6277.4728      13.044075      22.593         21.300885    
      1500   205.01532     -1687.1232      11.421634     -1675.7016     -289.32487      6193.3665      12.985557      22.491645      21.205326    
      2000   206.68181     -1690.7527      11.514475     -1679.2382     -1396.0126      6179.5112      12.975867      22.47486       21.189502    
      2500   213.4073      -1693.6253      11.88916      -1681.7361      521.97215      6120.2961      12.934287      22.402842      21.121602    
      3000   176.64656     -1697.239       9.8411779     -1687.3978     -1242.2705      6096.076       12.917202      22.373251      21.093703    
      3500   203.55503     -1699.5701      11.340279     -1688.2298      1366.4606      6067.1288      12.896724      22.337781      21.060262    
      4000   217.44784     -1699.6664      12.114263     -1687.5521      175.98993      6083.3406      12.908201      22.35766       21.079004    
      4500   197.18727     -1700.5746      10.985524     -1689.5891      848.53765      6086.1185      12.910165      22.361062      21.082212    
      5000   191.96498     -1701.2481      10.694584     -1690.5535     -2927.1158      6099.2804      12.919465      22.37717       21.097398    
      5500   195.80589     -1700.7002      10.908566     -1689.7916     -2574.9197      6087.3215      12.911016      22.362535      21.083601    
      6000   197.10119     -1700.9745      10.980728     -1689.9938      1993.5558      6073.2039      12.901027      22.345235      21.067289    
      6500   198.13618     -1703.1253      11.038389     -1692.0869      2110.8501      6053.4702      12.887039      22.321006      21.044446    
      7000   200.1584      -1703.8598      11.151049     -1692.7087     -405.58078      6049.522       12.884237      22.316152      21.03987     
      7500   191.519       -1705.9342      10.669738     -1695.2645     -482.35047      6045.9012      12.881665      22.311699      21.035672    
      8000   192.09504     -1707.6205      10.70183      -1696.9186     -3891.7704      6061.6013      12.892806      22.330996      21.053864    
      8500   192.35268     -1707.9326      10.716184     -1697.2165     -430.94664      6042.4303      12.8792        22.307429      21.031645    
      9000   203.33047     -1708.0606      11.327769     -1696.7328     -2659.3464      6071.0658      12.899513      22.342612      21.064817    
      9500   199.93549     -1710.2428      11.13863      -1699.1042     -966.45515      6068.6062      12.897771      22.339594      21.061971    
     10000   196.51262     -1710.9631      10.947939     -1700.0152      2870.0967      6044.4845      12.880659      22.309956      21.034028    
     10500   192.30439     -1709.8616      10.713493     -1699.1481     -738.84536      6079.1158      12.905212      22.352483      21.074123    
     11000   212.44015     -1710.4464      11.835279     -1698.6112     -3242.1404      6076.3674      12.903267      22.349114      21.070946    
     11500   210.57067     -1710.7527      11.731128     -1699.0215      368.92391      6058.6787      12.890734      22.327406      21.05048     
     12000   202.73374     -1710.4635      11.294524     -1699.169       34.700627      6060.3328      12.891907      22.329438      21.052396    
     12500   185.80883     -1711.4709      10.351618     -1701.1193      2746.2542      6033.3682      12.872758      22.296271      21.021126    
     13000   202.56315     -1710.6626      11.28502      -1699.3776      2062.782       6036.6017      12.875057      22.300254      21.024881    
     13500   210.56483     -1711.3809      11.730803     -1699.6501     -478.90797      6052.0471      12.886029      22.319257      21.042797    
     14000   189.03124     -1712.0468      10.531143     -1701.5156      953.09456      6029.4932      12.870002      22.291497      21.016625    
     14500   191.41387     -1712.3525      10.663882     -1701.6886     -1047.499       6045.2903      12.881232      22.310948      21.034963    
     15000   206.40685     -1711.8914      11.499157     -1700.3922      274.36748      6047.521       12.882816      22.313691      21.03755     
     15500   195.17219     -1710.7494      10.873262     -1699.8762     -2862.0435      6077.072       12.903766      22.349978      21.071761    
     16000   202.36396     -1710.7199      11.273923     -1699.446      -4189.5646      6091.6722      12.914091      22.367862      21.088622    
     16500   214.38276     -1711.8506      11.943504     -1699.9071      99.986561      6062.5596      12.893486      22.332172      21.054974    
     17000   195.19529     -1712.6366      10.874549     -1701.7621      804.12122      6042.6612      12.879364      22.307713      21.031913    
     17500   207.38513     -1712.7878      11.553658     -1701.2341     -955.25206      6059.5463      12.891349      22.328472      21.051485    
     18000   210.43347     -1713.2382      11.723485     -1701.5147     -701.52362      6035.1131      12.873999      22.29842       21.023152    
     18500   191.92389     -1713.2642      10.692295     -1702.5719     -2603.9871      6035.3167      12.874144      22.298671      21.023389    
     19000   192.99164     -1713.8841      10.751781     -1703.1323     -1174.8722      6028.9013      12.869581      22.290767      21.015937    
     19500   197.79392     -1713.5862      11.019321     -1702.5669     -1878.6434      6026.3886      12.867792      22.28767       21.013017    
     20000   201.56268     -1713.5358      11.229283     -1702.3065      1376.2203      6015.1153      12.859764      22.273764      20.999906    
Loop time of 266.936 on 8 procs for 20000 steps with 432 atoms

Performance: 12.947 ns/day, 1.854 hours/ns, 74.924 timesteps/s, 32.367 katom-step/s
96.9% CPU use with 1 MPI tasks x 8 OpenMP threads

MPI task timing breakdown:
Section |  min time  |  avg time  |  max time  |%varavg| %total
---------------------------------------------------------------
Pair    | 241.15     | 241.15     | 241.15     |   0.0 | 90.34
Neigh   | 0.022905   | 0.022905   | 0.022905   |   0.0 |  0.01
Comm    | 0.33655    | 0.33655    | 0.33655    |   0.0 |  0.13
Output  | 0.004343   | 0.004343   | 0.004343   |   0.0 |  0.00
Modify  | 25.354     | 25.354     | 25.354     |   0.0 |  9.50
Other   |            | 0.07082    |            |       |  0.03

Nlocal:            432 ave         432 max         432 min
Histogram: 1 0 0 0 0 0 0 0 0 0
Nghost:           2516 ave        2516 max        2516 min
Histogram: 1 0 0 0 0 0 0 0 0 0
Neighs:          32825 ave       32825 max       32825 min
Histogram: 1 0 0 0 0 0 0 0 0 0
FullNghs:        65650 ave       65650 max       65650 min
Histogram: 1 0 0 0 0 0 0 0 0 0

Total # of neighbors = 65650
Ave neighs/atom = 151.96759
Neighbor list builds = 26
Dangerous builds = 0
=== STAGE 3: NPT Production at 200 K ===
No /omp style for force computation currently active
Setting up Verlet run ...
  Unit style    : metal
  Current step  : 0
  Time step     : 0.001
Per MPI rank memory allocation (min/avg/max) = 18.59 | 18.59 | 18.59 Mbytes
   Step          Temp          PotEng         KinEng         TotEng         Press          Volume           Lx             Ly             Lz      
         0   201.56268     -1713.5358      11.229283     -1702.3065      1376.2203      6015.1153      12.859764      22.273764      20.999906    
       500   211.17631     -1714.9528      11.764869     -1703.1879     -592.47333      6018.6162      12.862258      22.278084      21.003979    
      1000   187.64632     -1714.4546      10.453987     -1704.0006      40.959096      6015.0054      12.859685      22.273628      20.999778    
      1500   196.49671     -1715.1275      10.947052     -1704.1804      2474.1101      5990.2808      12.842041      22.243068      20.970966    
      2000   204.63462     -1715.2364      11.400424     -1703.836       1482.9349      6004.9952      12.852548      22.261266      20.988123    
      2500   201.21446     -1714.797       11.209884     -1703.5872      1768.3389      6007.3037      12.854194      22.264118      20.990812    
      3000   215.50416     -1714.3473      12.005978     -1702.3413     -1190.0317      6018.1389      12.861918      22.277496      21.003424    
      3500   194.91922     -1714.603       10.859168     -1703.7438     -2085.4072      6032.706       12.872287      22.295456      21.020357    
      4000   201.43733     -1715.234       11.2223       -1704.0117      12.408525      6018.2205      12.861976      22.277596      21.003519    
      4500   193.85804     -1716.2678      10.800049     -1705.4677      1853.1761      6007.9752      12.854673      22.264947      20.991594    
      5000   200.60777     -1716.9044      11.176084     -1705.7283      2914.7336      5988.2793      12.840611      22.24059       20.96863     
      5500   180.6088      -1716.3557      10.061919     -1706.2938     -3018.899       6019.0933      12.862598      22.278673      21.004534    
      6000   208.05564     -1717.554       11.591013     -1705.9629     -85.053303      5981.0762      12.83546       22.231669      20.960219    
      6500   201.36288     -1715.7767      11.218152     -1704.5585     -3242.3474      6019.1652      12.862649      22.278762      21.004618    
      7000   209.49361     -1716.6264      11.671124     -1704.9553     -3237.8111      6003.6632      12.851597      22.25962       20.986571    
      7500   200.11079     -1717.0466      11.148397     -1705.8982      3329.0976      5987.2717      12.839891      22.239343      20.967454    
      8000   194.87905     -1716.9886      10.856931     -1706.1316     -3883.2411      6014.2152      12.859122      22.272653      20.998859    
      8500   204.14668     -1718.026       11.373241     -1706.6528      2449.9291      6010.7538      12.856655      22.268379      20.994829    
      9000   195.78542     -1718.0267      10.907425     -1707.1192      140.74755      6001.9332      12.850363      22.257481      20.984554    
      9500   212.16226     -1717.8937      11.819797     -1706.0739      814.76006      5987.4189      12.839996      22.239525      20.967625    
     10000   212.13771     -1717.8836      11.81843      -1706.0651      1329.0663      5994.9306      12.845363      22.248822      20.97639     
     10500   204.00806     -1718.0252      11.365518     -1706.6597     -3914.4534      6022.6405      12.865124      22.283049      21.00866     
     11000   199.70473     -1718.5867      11.125774     -1707.4609     -3212.2069      6016.6997      12.860893      22.27572       21.00175     
     11500   191.2778      -1718.699       10.656301     -1708.0427      2623.736       5981.3528      12.835658      22.232012      20.960542    
     12000   192.70737     -1718.1314      10.735944     -1707.3955      5139.7789      5969.2807      12.827017      22.217045      20.946431    
     12500   203.5684      -1718.2323      11.341024     -1706.8913     -148.28149      6008.3638      12.854951      22.265427      20.992046    
     13000   203.93909     -1717.983       11.361676     -1706.6213     -641.11023      6015.24        12.859853      22.273918      21.000051    
     13500   206.48852     -1719.1839      11.503707     -1707.6802     -185.0817       5985.3935      12.838548      22.237017      20.965261    
     14000   203.1262      -1717.7144      11.316389     -1706.398      -4068.7051      6046.9088      12.882381      22.312938      21.03684     
     14500   205.36817     -1717.9784      11.441291     -1706.5371     -1402.982       6006.7903      12.853828      22.263484      20.990214    
     15000   205.74535     -1718.6841      11.462305     -1707.2218     -2931.507       6023.2072      12.865528      22.283748      21.009319    
     15500   193.16985     -1720.195       10.761709     -1709.4333      793.94235      5977.5844      12.832962      22.227342      20.956139    
     16000   187.91691     -1719.5782      10.469062     -1709.1092      170.80762      5993.463       12.844315      22.247006      20.974678    
     16500   202.1616      -1719.8433      11.26265      -1708.5806      2437.4352      5973.1759      12.829806      22.221877      20.950986    
     17000   203.46166     -1719.2411      11.335078     -1707.906       2619.7411      6001.1466      12.849801      22.256509      20.983638    
     17500   191.41899     -1719.4205      10.664167     -1708.7563      651.54051      5987.7864      12.840259      22.23998       20.968054    
     18000   193.67539     -1719.5915      10.789873     -1708.8016      4337.3671      5963.7306      12.82304       22.210157      20.939937    
     18500   190.60618     -1719.0918      10.618884     -1708.4729     -2519.0826      6016.8072      12.860969      22.275852      21.001875    
     19000   203.55189     -1719.268       11.340104     -1707.9279     -392.90668      6007.3779      12.854247      22.26421       20.990898    
     19500   203.05953     -1719.0937      11.312674     -1707.781      -1882.5218      6004.4086      12.852129      22.260541      20.987439    
     20000   203.39252     -1719.7214      11.331225     -1708.3902     -1306.1056      5992.8486      12.843876      22.246246      20.973962    
     20500   211.04198     -1719.0704      11.757386     -1707.313      -3834.1431      6010.5594      12.856516      22.268139      20.994603    
     21000   211.49979     -1719.1293      11.78289      -1707.3464     -1590.593       6004.0476      12.851872      22.260095      20.987018    
     21500   208.44067     -1719.2855      11.612464     -1707.6731     -3055.9226      6010.1202      12.856203      22.267597      20.994092    
     22000   194.86567     -1719.0997      10.856185     -1708.2435      296.13178      6002.318       12.850637      22.257957      20.985003    
     22500   202.90961     -1720.0828      11.304322     -1708.7785      554.88316      5989.0309      12.841148      22.241521      20.969507    
     23000   214.97481     -1719.2779      11.976488     -1707.3014      5097.9588      5961.644       12.821545      22.207567      20.937495    
     23500   209.70865     -1718.7136      11.683104     -1707.0305      1219.5432      5987.4659      12.840029      22.239583      20.96768     
     24000   202.16344     -1719.7933      11.262752     -1708.5305     -242.85224      5987.428       12.840002      22.239536      20.967636    
     24500   207.21346     -1719.2428      11.544094     -1707.6987     -196.07681      6004.3094      12.852058      22.260418      20.987323    
     25000   200.02503     -1719.753       11.143619     -1708.6094      1511.9636      5977.6938      12.83304       22.227478      20.956267    
     25500   185.32727     -1719.3897      10.32479      -1709.0649     -17.542149      5980.7929      12.835258      22.231318      20.959888    
     26000   189.19827     -1719.211       10.540448     -1708.6705      3589.5614      5974.6434      12.830857      22.223696      20.952702    
     26500   196.94653     -1719.5112      10.972113     -1708.5391     -232.3956       5989.0684      12.841175      22.241567      20.969551    
     27000   204.1327      -1718.7178      11.372462     -1707.3453     -103.01634      5987.6755      12.840179      22.239843      20.967925    
     27500   205.07135     -1718.836       11.424755     -1707.4113     -405.19492      5986.3604      12.839239      22.238215      20.96639     
     28000   201.76548     -1719.1991      11.240581     -1707.9585      2268.249       5966.6575      12.825138      22.21379       20.943362    
     28500   201.65718     -1719.7735      11.234548     -1708.5389      10.114846      6000.3407      12.849226      22.255512      20.982698    
     29000   202.11922     -1719.693       11.260289     -1708.4327     -146.85449      5998.5636      12.847957      22.253315      20.980627    
     29500   213.94556     -1718.8507      11.919147     -1706.9315     -2225.3326      6023.5363      12.865762      22.284153      21.009701    
     30000   206.01955     -1719.3304      11.47758      -1707.8528      1873.1615      5976.7863      12.832391      22.226353      20.955206    
     30500   201.9005      -1719.3914      11.248103     -1708.1433      1587.6482      5991.1477      12.842661      22.244141      20.971977    
     31000   194.21984     -1719.3161      10.820205     -1708.4959     -2513.0071      6008.8004      12.855262      22.265967      20.992555    
     31500   194.22517     -1719.2128      10.820502     -1708.3923      480.02801      5989.522       12.841499      22.242129      20.97008     
     32000   194.41757     -1718.6318      10.831221     -1707.8005     -455.97749      5998.5184      12.847925      22.253259      20.980574    
     32500   197.79888     -1718.769       11.019598     -1707.7494     -1281.7119      6001.629       12.850146      22.257105      20.9842      
     33000   197.84831     -1719.5131      11.022351     -1708.4907     -641.94492      5990.1039      12.841915      22.242849      20.970759    
     33500   186.78162     -1719.9775      10.405814     -1709.5717      2127.0422      5964.5347      12.823617      22.211156      20.940878    
     34000   195.55455     -1719.2714      10.894564     -1708.3768     -2146.0447      6004.9389      12.852508      22.261196      20.988057    
     34500   212.26131     -1719.4802      11.825316     -1707.6549      25.205552      5989.3214      12.841356      22.24188       20.969846    
     35000   199.26049     -1719.1824      11.101026     -1708.0814      3078.82        5979.1039      12.834049      22.229225      20.957915    
     35500   194.79018     -1719.7323      10.851979     -1708.8803     -517.98689      5994.8544      12.845309      22.248727      20.976301    
     36000   192.896       -1719.579       10.746453     -1708.8325      1926.1121      5972.9559      12.829649      22.221604      20.950729    
     36500   213.3613      -1719.7353      11.886598     -1707.8487     -887.51516      5986.1022      12.839055      22.237895      20.966088    
     37000   211.12613     -1719.2197      11.762074     -1707.4576      2957.3574      5995.157       12.845525      22.249102      20.976654    
     37500   198.5601      -1719.2421      11.062006     -1708.1801      1956.4744      5991.3418      12.842799      22.244381      20.972204    
     38000   207.08234     -1719.7121      11.53679      -1708.1753     -314.75974      5991.0214      12.842571      22.243985      20.97183     
     38500   190.42466     -1719.37        10.608772     -1708.7613     -1169.9791      5992.0358      12.843295      22.24524       20.973013    
     39000   186.74826     -1719.8881      10.403955     -1709.4841     -2484.4891      5997.2735      12.847036      22.25172       20.979123    
     39500   217.16765     -1719.3578      12.098654     -1707.2592     -2552.0332      6018.2938      12.862028      22.277687      21.003604    
     40000   193.5235      -1719.4566      10.781411     -1708.6752      420.4056       5998.7355      12.84808       22.253528      20.980827    
     40500   189.13031     -1719.549       10.536662     -1709.0123      3678.1847      5976.7867      12.832391      22.226353      20.955207    
     41000   190.8173      -1719.1987      10.630646     -1708.5681     -809.32875      6001.9994      12.85041       22.257563      20.984632    
     41500   201.66885     -1718.8622      11.235198     -1707.627       3614.8583      5980.8288      12.835283      22.231363      20.95993     
     42000   207.50175     -1719.3909      11.560155     -1707.8308      5531.608       5976.5335      12.83221       22.226039      20.954911    
     42500   184.93431     -1719.9996      10.302898     -1709.6967      131.76753      5998.3113      12.847777      22.253003      20.980333    
     43000   200.65664     -1719.6385      11.178806     -1708.4597     -2703.2642      6011.9008      12.857472      22.269796      20.996165    
     43500   200.87257     -1719.2168      11.190836     -1708.026       177.10604      5992.398       12.843554      22.245688      20.973436    
     44000   195.06981     -1718.9346      10.867558     -1708.0671      415.34931      5980.624       12.835137      22.231109      20.959691    
     44500   187.14437     -1719.3925      10.426023     -1708.9665      1121.4761      5969.8342      12.827413      22.217732      20.947078    
     45000   198.72541     -1719.3954      11.071216     -1708.3242     -193.92956      5994.3591      12.844955      22.248115      20.975724    
     45500   202.88875     -1719.3507      11.30316      -1708.0475     -1068.357       5985.7246      12.838785      22.237427      20.965647    
     46000   213.67635     -1718.9599      11.904149     -1707.0558     -442.91194      5988.1073      12.840488      22.240377      20.968429    
     46500   203.10962     -1719.072       11.315465     -1707.7565      1323.4331      5991.9566      12.843239      22.245142      20.972921    
     47000   202.02107     -1719.2843      11.25482      -1708.0295     -521.23323      5990.8798      12.842469      22.243809      20.971665    
     47500   191.19048     -1719.5448      10.651436     -1708.8934     -2758.7585      5995.9918      12.846121      22.250134      20.977628    
     48000   198.09766     -1719.2797      11.036243     -1708.2434     -492.35475      5990.9952      12.842552      22.243952      20.971799    
     48500   204.37967     -1719.0457      11.386221     -1707.6594     -103.40031      5980.829       12.835283      22.231363      20.95993     
     49000   204.92797     -1718.3764      11.416767     -1706.9596     -276.55846      6000.2221      12.849141      22.255366      20.98256     
     49500   204.88149     -1719.1746      11.414178     -1707.7604      131.13222      5986.7464      12.839515      22.238692      20.96684     
     50000   194.38239     -1719.1803      10.829261     -1708.351       29.620732      5984.5387      12.837937      22.235959      20.964263    
Loop time of 676.876 on 8 procs for 50000 steps with 432 atoms

Performance: 6.382 ns/day, 3.760 hours/ns, 73.869 timesteps/s, 31.911 katom-step/s
96.5% CPU use with 1 MPI tasks x 8 OpenMP threads

MPI task timing breakdown:
Section |  min time  |  avg time  |  max time  |%varavg| %total
---------------------------------------------------------------
Pair    | 612.28     | 612.28     | 612.28     |   0.0 | 90.46
Neigh   | 0.002      | 0.002      | 0.002      |   0.0 |  0.00
Comm    | 0.84185    | 0.84185    | 0.84185    |   0.0 |  0.12
Output  | 0.009959   | 0.009959   | 0.009959   |   0.0 |  0.00
Modify  | 63.579     | 63.579     | 63.579     |   0.0 |  9.39
Other   |            | 0.1635     |            |       |  0.02

Nlocal:            432 ave         432 max         432 min
Histogram: 1 0 0 0 0 0 0 0 0 0
Nghost:           2537 ave        2537 max        2537 min
Histogram: 1 0 0 0 0 0 0 0 0 0
Neighs:          32962 ave       32962 max       32962 min
Histogram: 1 0 0 0 0 0 0 0 0 0
FullNghs:        65924 ave       65924 max       65924 min
Histogram: 1 0 0 0 0 0 0 0 0 0

Total # of neighbors = 65924
Ave neighs/atom = 152.60185
Neighbor list builds = 2
Dangerous builds = 0

=== FINAL RESULTS: HCP at 200 K ===
Atoms: 432 | PE/atom: -3.97945906404036 eV/atom
WARNING: Detected non-ASCII characters in input. Will try to continue by replacing with ASCII equivalents where known. (src/input.cpp:479)
Volume: 5984.53866676734 …³ | Area: 285.463826688709 ²
==========================================
HCP 200 432 -3.97945906404036 5984.53866676734 12.8379366417761 22.2359585230992 20.964262744552 285.463826688709
Simulation complete!
Total wall time: 0:15:46
