LAMMPS (10 Sep 2025)
  using 8 OpenMP thread(s) per MPI task
Loaded 1 plugins from C:\Users\kumar\AppData\Local\LAMMPS 64-bit 10Sep2025\plugins
using multi-threaded neighbor list subroutines
Reading data file ...
  orthogonal box = (0 0 0) to (22.488 22.488 22.488)
  1 by 1 by 1 MPI processor grid
  reading atoms ...
  864 atoms
  read_data CPU = 0.024 seconds
=== STAGE 1: Energy Minimization ===
Switching to 'neigh_modify every 1 delay 0 check yes' setting during minimization
No /omp style for force computation currently active
Neighbor list info ...
  update: every = 1 steps, delay = 0 steps, check = yes
  max neighbors/atom: 4000, page size: 100000
  master list distance cutoff = 8
  ghost atom cutoff = 8
  binsize = 4, bins = 6 6 6
  2 neighbor lists, perpetual/occasional/extra = 2 0 0
  (1) pair meam, perpetual
      attributes: full, newton on, omp
      pair build: full/bin/atomonly/omp
      stencil: full/bin/3d
      bin: standard
  (2) pair meam, perpetual, half/full from (1)
      attributes: half, newton on, omp
      pair build: halffull/newton/omp
      stencil: none
      bin: none
Setting up cg style minimization ...
  Unit style    : metal
  Current step  : 0
Per MPI rank memory allocation (min/avg/max) = 21.26 | 21.26 | 21.26 Mbytes
   Step          Temp          PotEng         KinEng         TotEng         Press          Volume           Lx             Ly             Lz      
         0   0             -3267.6251      0             -3267.6251      11862.577      11372.41       22.488         22.488         22.488       
        23   0             -3388.5931      0             -3388.5931      10435.666      11372.41       22.488         22.488         22.488       
Loop time of 1.20002 on 8 procs for 23 steps with 864 atoms

97.7% CPU use with 1 MPI tasks x 8 OpenMP threads

Minimization stats:
  Stopping criterion = energy tolerance
  Energy initial, next-to-last, final = 
     -3267.62505586225  -3388.59270923369  -3388.59306828149
  Force two-norm initial, final = 67.5534 19.794838
  Force max component initial, final = 5.765539 5.9489041
  Final line search alpha, max atom move = 0.035432063 0.21078194
  Iterations, force evaluations = 23 57

MPI task timing breakdown:
Section |  min time  |  avg time  |  max time  |%varavg| %total
---------------------------------------------------------------
Pair    | 1.1866     | 1.1866     | 1.1866     |   0.0 | 98.88
Neigh   | 0          | 0          | 0          |   0.0 |  0.00
Comm    | 0.001036   | 0.001036   | 0.001036   |   0.0 |  0.09
Output  | 0          | 0          | 0          |   0.0 |  0.00
Modify  | 0.011279   | 0.011279   | 0.011279   |   0.0 |  0.94
Other   |            | 0.001138   |            |       |  0.09

Nlocal:            864 ave         864 max         864 min
Histogram: 1 0 0 0 0 0 0 0 0 0
Nghost:           3767 ave        3767 max        3767 min
Histogram: 1 0 0 0 0 0 0 0 0 0
Neighs:          76032 ave       76032 max       76032 min
Histogram: 1 0 0 0 0 0 0 0 0 0
FullNghs:       152064 ave      152064 max      152064 min
Histogram: 1 0 0 0 0 0 0 0 0 0

Total # of neighbors = 152064
Ave neighs/atom = 176
Neighbor list builds = 0
Dangerous builds = 0
Minimized PE/atom: -3.92198271791839 eV/atom
=== STAGE 2: NPT Equilibration at 400 K ===
No /omp style for force computation currently active
Setting up Verlet run ...
  Unit style    : metal
  Current step  : 0
  Time step     : 0.002
Per MPI rank memory allocation (min/avg/max) = 20.14 | 20.14 | 20.14 Mbytes
   Step          Temp          PotEng         KinEng         TotEng         Press          Volume           Lx             Ly             Lz      
         0   400           -3388.5931      44.620602     -3343.9725      14626.515      11372.41       22.488         22.488         22.488       
       500   405.66829     -3357.2532      45.252908     -3312.0003      873.56553      11805.442      22.76988       22.76988       22.76988     
      1000   397.41694     -3362.3952      44.332458     -3318.0627     -519.21831      11844.289      22.794828      22.794828      22.794828    
      1500   393.45573     -3359.8414      43.890578     -3315.9508      4690.5623      11786.585      22.75775       22.75775       22.75775     
      2000   400.00079     -3358.2487      44.62069      -3313.628       223.58884      11885.345      22.821136      22.821136      22.821136    
      2500   401.52878     -3357.4614      44.79114      -3312.6703     -3107.6017      11897.492      22.828908      22.828908      22.828908    
      3000   394.01594     -3361.1863      43.953071     -3317.2332     -3465.3398      11915.727      22.840565      22.840565      22.840565    
      3500   421.14783     -3362.3606      46.979675     -3315.3809     -2616.8495      11914.478      22.839767      22.839767      22.839767    
      4000   416.52612     -3360.1467      46.464116     -3313.6826     -781.87945      11863.004      22.806828      22.806828      22.806828    
      4500   408.0701      -3365.7009      45.520834     -3320.1801      2177.9888      11832.487      22.787255      22.787255      22.787255    
      5000   395.39007     -3362.4268      44.106357     -3318.3204      290.6779       11866.665      22.809174      22.809174      22.809174    
      5500   414.23983     -3365.2071      46.209076     -3318.998      -1014.2308      11887.236      22.822346      22.822346      22.822346    
      6000   407.53227     -3364.4126      45.460838     -3318.9518     -2958.6107      11895.22       22.827455      22.827455      22.827455    
      6500   407.51624     -3365.6198      45.45905      -3320.1607     -2454.4873      11885.297      22.821105      22.821105      22.821105    
      7000   384.66797     -3365.1383      42.910291     -3322.2281     -1373.0864      11881.309      22.818553      22.818553      22.818553    
      7500   404.54818     -3365.4069      45.127959     -3320.2789     -3877.0208      11917.474      22.841681      22.841681      22.841681    
      8000   402.29859     -3367.1703      44.877014     -3322.2933      38.38892       11896.673      22.828384      22.828384      22.828384    
      8500   389.72668     -3367.6395      43.474597     -3324.1649     -1085.8243      11896.702      22.828403      22.828403      22.828403    
      9000   398.97022     -3367.8165      44.505729     -3323.3108     -37.967498      11890.896      22.824689      22.824689      22.824689    
      9500   399.93355     -3367.3078      44.61319      -3322.6946     -662.04255      11902.995      22.832427      22.832427      22.832427    
     10000   407.46583     -3367.713       45.453426     -3322.2596     -891.88276      11923.74       22.845684      22.845684      22.845684    
     10500   402.39654     -3370.1588      44.88794      -3325.2709     -1640.2272      11903.752      22.832911      22.832911      22.832911    
     11000   388.02398     -3368.1085      43.284659     -3324.8239      5014.2727      11848.727      22.797675      22.797675      22.797675    
     11500   401.53837     -3365.3065      44.792209     -3320.5143      5844.6888      11901.757      22.831636      22.831636      22.831636    
     12000   402.07111     -3364.6534      44.851638     -3319.8018      2435.5625      11906.044      22.834376      22.834376      22.834376    
     12500   410.31471     -3365.0211      45.771224     -3319.2499      859.45656      11951.117      22.863155      22.863155      22.863155    
     13000   408.18735     -3368.1909      45.533914     -3322.657       1511.273       11932.335      22.851172      22.851172      22.851172    
     13500   395.35025     -3367.0464      44.101916     -3322.9445     -1396.545       11950.914      22.863026      22.863026      22.863026    
     14000   397.4524      -3365.9         44.336414     -3321.5636      630.30541      11935.842      22.853411      22.853411      22.853411    
     14500   427.4326      -3367.6231      47.68075      -3319.9424     -2054.4083      11979.134      22.881007      22.881007      22.881007    
     15000   395.04908     -3367.7694      44.06832      -3323.701      -2133.2559      11952.679      22.864151      22.864151      22.864151    
     15500   397.59177     -3369.133       44.35196      -3324.781       1532.3035      11900.842      22.83105       22.83105       22.83105     
     16000   396.20929     -3367.7562      44.197742     -3323.5584      4124.4151      11888.832      22.823368      22.823368      22.823368    
     16500   406.66173     -3367.6213      45.363728     -3322.2576      745.53667      11945.452      22.859542      22.859542      22.859542    
     17000   409.77392     -3367.7611      45.710897     -3322.0502     -1304.6791      11953.121      22.864433      22.864433      22.864433    
     17500   388.98458     -3371.0315      43.391815     -3327.6397     -2235.8685      11976.357      22.879239      22.879239      22.879239    
     18000   390.13557     -3369.8861      43.520211     -3326.3659      370.98787      11954.745      22.865469      22.865469      22.865469    
     18500   422.72456     -3369.8659      47.155561     -3322.7103      245.38937      11974.227      22.877883      22.877883      22.877883    
     19000   405.13917     -3370.6852      45.193884     -3325.4913     -349.33565      11941.441      22.856984      22.856984      22.856984    
     19500   397.34371     -3370.659       44.324289     -3326.3348     -393.77058      11965.93       22.872597      22.872597      22.872597    
     20000   399.44391     -3371.0155      44.558569     -3326.4569     -1838.5345      11962.415      22.870358      22.870358      22.870358    
Loop time of 490.832 on 8 procs for 20000 steps with 864 atoms

Performance: 7.041 ns/day, 3.409 hours/ns, 40.747 timesteps/s, 35.206 katom-step/s
95.6% CPU use with 1 MPI tasks x 8 OpenMP threads

MPI task timing breakdown:
Section |  min time  |  avg time  |  max time  |%varavg| %total
---------------------------------------------------------------
Pair    | 462.73     | 462.73     | 462.73     |   0.0 | 94.28
Neigh   | 0.024804   | 0.024804   | 0.024804   |   0.0 |  0.01
Comm    | 0.48897    | 0.48897    | 0.48897    |   0.0 |  0.10
Output  | 0.004174   | 0.004174   | 0.004174   |   0.0 |  0.00
Modify  | 27.491     | 27.491     | 27.491     |   0.0 |  5.60
Other   |            | 0.0906     |            |       |  0.02

Nlocal:            864 ave         864 max         864 min
Histogram: 1 0 0 0 0 0 0 0 0 0
Nghost:           3558 ave        3558 max        3558 min
Histogram: 1 0 0 0 0 0 0 0 0 0
Neighs:          66440 ave       66440 max       66440 min
Histogram: 1 0 0 0 0 0 0 0 0 0
FullNghs:       132880 ave      132880 max      132880 min
Histogram: 1 0 0 0 0 0 0 0 0 0

Total # of neighbors = 132880
Ave neighs/atom = 153.7963
Neighbor list builds = 12
Dangerous builds = 0
=== STAGE 3: NPT Production at 400 K ===
No /omp style for force computation currently active
Setting up Verlet run ...
  Unit style    : metal
  Current step  : 0
  Time step     : 0.001
Per MPI rank memory allocation (min/avg/max) = 20.14 | 20.14 | 20.14 Mbytes
   Step          Temp          PotEng         KinEng         TotEng         Press          Volume           Lx             Ly             Lz      
         0   399.44391     -3371.0155      44.558569     -3326.4569     -1838.5345      11962.415      22.870358      22.870358      22.870358    
       500   408.89876     -3370.9665      45.613272     -3325.3532     -1167.697       11948.099      22.86123       22.86123       22.86123     
      1000   401.78923     -3368.4964      44.820193     -3323.6762     -2973.6901      12003.981      22.896817      22.896817      22.896817    
      1500   414.30916     -3369.7749      46.21681      -3323.5581     -779.90691      11966.945      22.873244      22.873244      22.873244    
      2000   395.92491     -3368.7422      44.166019     -3324.5761     -22.945613      11947.274      22.860704      22.860704      22.860704    
      2500   407.26925     -3370.6763      45.431498     -3325.2448      203.25519      11962.851      22.870635      22.870635      22.870635    
      3000   386.54144     -3370.8237      43.119279     -3327.7044      828.15124      11936.293      22.853699      22.853699      22.853699    
      3500   421.24826     -3373.7831      46.990878     -3326.7923      4064.5403      11884.786      22.820778      22.820778      22.820778    
      4000   409.5329      -3370.2862      45.684011     -3324.6022     -2424.2466      11950.367      22.862677      22.862677      22.862677    
      4500   396.42928     -3373.6468      44.222283     -3329.4245     -2805.7767      11979.679      22.881354      22.881354      22.881354    
      5000   402.21854     -3372.4338      44.868084     -3327.5657     -2151.857       11975.058      22.878412      22.878412      22.878412    
      5500   398.48115     -3374.0672      44.451172     -3329.616       2599.1226      11883.549      22.819987      22.819987      22.819987    
      6000   402.19675     -3374.0259      44.865653     -3329.1603     -290.96603      11938.193      22.854911      22.854911      22.854911    
      6500   413.32631     -3370.7774      46.107171     -3324.6702     -1197.758       11935.8        22.853384      22.853384      22.853384    
      7000   402.52935     -3374.8804      44.902755     -3329.9776      2235.714       11890.746      22.824592      22.824592      22.824592    
      7500   396.98273     -3376.5197      44.284021     -3332.2357     -1256.3012      11951.904      22.863657      22.863657      22.863657    
      8000   418.48684     -3372.7016      46.682837     -3326.0187     -14.578944      11945.006      22.859258      22.859258      22.859258    
      8500   416.10343     -3373.7372      46.416964     -3327.3202      366.79138      11906.657      22.834768      22.834768      22.834768    
      9000   391.33011     -3373.1881      43.653462     -3329.5347      627.17715      11913.32       22.839027      22.839027      22.839027    
      9500   390.82223     -3375.2893      43.596808     -3331.6925     -1739.1058      11946.563      22.860251      22.860251      22.860251    
     10000   413.85464     -3374.7442      46.166108     -3328.5781     -1041.6784      11929.459      22.849336      22.849336      22.849336    
     10500   394.45363     -3370.6335      44.001896     -3326.6316     -1351.9616      11981.438      22.882474      22.882474      22.882474    
     11000   402.36112     -3374.2734      44.883989     -3329.3894      43.196389      11927.816      22.848287      22.848287      22.848287    
     11500   401.59275     -3376.3509      44.798276     -3331.5527      3093.2993      11888.648      22.82325       22.82325       22.82325     
     12000   400.39834     -3374.4305      44.665038     -3329.7654      266.22619      11924.741      22.846323      22.846323      22.846323    
     12500   426.10536     -3375.2755      47.532694     -3327.7428     -2251.2516      11962.386      22.870339      22.870339      22.870339    
     13000   394.14075     -3372.7676      43.966993     -3328.8006     -539.14909      11922.331      22.844784      22.844784      22.844784    
     13500   406.47132     -3375.6319      45.342487     -3330.2894      2143.478       11893.714      22.826491      22.826491      22.826491    
     14000   390.75503     -3374.9703      43.589312     -3331.381       221.42885      11912.186      22.838303      22.838303      22.838303    
     14500   419.7594      -3371.8398      46.824793     -3325.015      -986.86842      11974.01       22.877745      22.877745      22.877745    
     15000   387.81748     -3375.4543      43.261623     -3332.1927      4554.0166      11861.441      22.805827      22.805827      22.805827    
     15500   399.77634     -3375.5881      44.595652     -3330.9925     -1422.6638      11935.805      22.853387      22.853387      22.853387    
     16000   409.40789     -3374.3175      45.670066     -3328.6474     -1524.183       11934.065      22.852277      22.852277      22.852277    
     16500   411.11177     -3374.4289      45.860137     -3328.5688      733.47992      11907.033      22.835009      22.835009      22.835009    
     17000   399.02261     -3375.8792      44.511572     -3331.3676      3987.5107      11867.153      22.809487      22.809487      22.809487    
     17500   387.30788     -3374.453       43.204777     -3331.2482      5546.2408      11870.046      22.81134       22.81134       22.81134     
     18000   412.33078     -3374.6047      45.99612      -3328.6086      4366.9768      11908.686      22.836065      22.836065      22.836065    
     18500   404.99642     -3375.468       45.177961     -3330.2901     -103.11199      11915.466      22.840398      22.840398      22.840398    
     19000   402.08136     -3378.2377      44.85278      -3333.385       498.06788      11930.238      22.849833      22.849833      22.849833    
     19500   393.93669     -3376.4004      43.94423      -3332.4562     -572.09863      11917.102      22.841443      22.841443      22.841443    
     20000   397.93781     -3373.1766      44.390561     -3328.786      -430.37363      11919.585      22.84303       22.84303       22.84303     
     20500   421.2684      -3376.0032      46.993124     -3329.01       -3472.6362      11942.865      22.857892      22.857892      22.857892    
     21000   402.38832     -3375.9497      44.887023     -3331.0627      1785.1107      11874.049      22.813904      22.813904      22.813904    
     21500   391.15728     -3375.5464      43.634183     -3331.9122     -591.64237      11919.832      22.843188      22.843188      22.843188    
     22000   388.34542     -3378.107       43.320516     -3334.7865     -666.68436      11939.964      22.856041      22.856041      22.856041    
     22500   388.13419     -3375.4052      43.296953     -3332.1083      2370.1179      11922.733      22.845041      22.845041      22.845041    
     23000   401.89431     -3375.1512      44.831915     -3330.3193      801.05006      11951.233      22.863229      22.863229      22.863229    
     23500   401.8669      -3375.5788      44.828858     -3330.75       -1032.3162      11935.743      22.853347      22.853347      22.853347    
     24000   391.61326     -3376.055       43.685049     -3332.37       -1126.6335      11950.46       22.862736      22.862736      22.862736    
     24500   404.698       -3375.4791      45.144671     -3330.3344      223.08523      11912.105      22.838251      22.838251      22.838251    
     25000   395.88559     -3376.4842      44.161634     -3332.3226      3889.0494      11871.932      22.812548      22.812548      22.812548    
     25500   400.67273     -3375.9634      44.695646     -3331.2678     -2375.3977      11949.819      22.862328      22.862328      22.862328    
     26000   409.60169     -3375.6207      45.691685     -3329.929      -1760.3793      11974.092      22.877797      22.877797      22.877797    
     26500   396.39787     -3376.8452      44.21878      -3332.6265     -424.23233      11938.893      22.855357      22.855357      22.855357    
     27000   407.24457     -3374.999       45.428745     -3329.5703      1203.9266      11927.067      22.847809      22.847809      22.847809    
     27500   411.42839     -3377.5848      45.895457     -3331.6894      148.38231      11934.737      22.852705      22.852705      22.852705    
     28000   388.77051     -3375.8224      43.367936     -3332.4544     -1142.1079      11946.386      22.860138      22.860138      22.860138    
     28500   391.66387     -3376.2595      43.690694     -3332.5688      349.93489      11925.506      22.846812      22.846812      22.846812    
     29000   376.32491     -3376.3042      41.97961      -3334.3246      827.04447      11894.052      22.826708      22.826708      22.826708    
     29500   396.76615     -3376.3457      44.259861     -3332.0858     -463.89837      11948.249      22.861326      22.861326      22.861326    
     30000   408.931       -3375.5422      45.616868     -3329.9254      1203.2331      11899.732      22.830341      22.830341      22.830341    
     30500   406.05516     -3375.114       45.296064     -3329.818      -2785.4232      11939.649      22.85584       22.85584       22.85584     
     31000   413.58149     -3376.243       46.135638     -3330.1074      4334.7087      11861.769      22.806037      22.806037      22.806037    
     31500   411.90536     -3378.5084      45.948663     -3332.5598      4353.9753      11863.67       22.807255      22.807255      22.807255    
     32000   391.93084     -3378.6344      43.720475     -3334.9139      820.7801       11879.922      22.817665      22.817665      22.817665    
     32500   408.61654     -3377.9876      45.58179      -3332.4058     -1040.4735      11923.446      22.845496      22.845496      22.845496    
     33000   425.32135     -3377.8035      47.445237     -3330.3583      770.16635      11927.369      22.848001      22.848001      22.848001    
     33500   408.21885     -3376.7951      45.537427     -3331.2577     -2847.0012      11921.669      22.844362      22.844362      22.844362    
     34000   379.88884     -3376.0301      42.377172     -3333.6529      3132.071       11879.539      22.817419      22.817419      22.817419    
     34500   395.49569     -3376.1399      44.11814      -3332.0217      860.78652      11905.049      22.833741      22.833741      22.833741    
     35000   401.75886     -3375.088       44.816806     -3330.2712      818.16058      11916.753      22.841221      22.841221      22.841221    
     35500   398.83338     -3374.6063      44.490464     -3330.1158      1216.5603      11923.678      22.845644      22.845644      22.845644    
     36000   394.70679     -3376.4557      44.030137     -3332.4256     -4.7325542      11936.38       22.853754      22.853754      22.853754    
     36500   385.74129     -3376.3927      43.030021     -3333.3627      156.98166      11903.435      22.832709      22.832709      22.832709    
     37000   395.31355     -3377.3348      44.097821     -3333.2369     -862.19273      11901.941      22.831753      22.831753      22.831753    
     37500   404.26186     -3376.7118      45.096019     -3331.6158      5915.1227      11823.487      22.781476      22.781476      22.781476    
     38000   403.54272     -3374.8507      45.015798     -3329.8349      2306.1415      11906.962      22.834963      22.834963      22.834963    
     38500   408.21953     -3376.4962      45.537503     -3330.9587     -2762.888       11929.165      22.849148      22.849148      22.849148    
     39000   395.07305     -3377.0392      44.070993     -3332.9682     -1422.3488      11922.001      22.844573      22.844573      22.844573    
     39500   372.69328     -3377.9957      41.574497     -3336.4212     -3644.5005      11955.331      22.865842      22.865842      22.865842    
     40000   385.01079     -3376.7424      42.948533     -3333.7939     -1557.654       11946.831      22.860422      22.860422      22.860422    
     40500   402.46807     -3377.4578      44.895919     -3332.5619      1027.122       11902.353      22.832017      22.832017      22.832017    
     41000   399.11898     -3377.2029      44.522323     -3332.6806     -1366.4419      11919.02       22.842669      22.842669      22.842669    
     41500   386.70724     -3378.7117      43.137775     -3335.5739     -1465.7393      11894.906      22.827254      22.827254      22.827254    
     42000   398.15509     -3377.8545      44.4148       -3333.4397      1503.2568      11887.069      22.822239      22.822239      22.822239    
     42500   415.56821     -3378.2442      46.357259     -3331.8869      2739.9832      11852.452      22.800064      22.800064      22.800064    
     43000   410.8081      -3380.0199      45.826262     -3334.1936      3305.6735      11877.296      22.815984      22.815984      22.815984    
     43500   403.29425     -3376.3592      44.988081     -3331.3712      2530.9036      11873.531      22.813572      22.813572      22.813572    
     44000   411.6991      -3377.7639      45.925654     -3331.8383      4531.1455      11841.445      22.793004      22.793004      22.793004    
     44500   416.157       -3377.9737      46.42294      -3331.5507      916.60266      11907.508      22.835313      22.835313      22.835313    
     45000   402.67191     -3379.5591      44.918658     -3334.6404     -808.08448      11927.75       22.848245      22.848245      22.848245    
     45500   418.35438     -3380.6386      46.668061     -3333.9706      1946.0285      11891.491      22.825069      22.825069      22.825069    
     46000   408.05616     -3378.9227      45.519279     -3333.4034      1882.4642      11865.677      22.808541      22.808541      22.808541    
     46500   385.09617     -3382.1683      42.958057     -3339.2102      3464.9886      11841.106      22.792787      22.792787      22.792787    
     47000   389.33018     -3380.4023      43.430368     -3336.972      -865.53535      11904.982      22.833698      22.833698      22.833698    
     47500   397.30783     -3379.6967      44.320287     -3335.3764      2945.9167      11872.931      22.813188      22.813188      22.813188    
     48000   393.68867     -3377.6148      43.916563     -3333.6982     -1486.3186      11951.577      22.863449      22.863449      22.863449    
     48500   398.72646     -3379.6318      44.478537     -3335.1533     -4133.6929      11938.252      22.854948      22.854948      22.854948    
     49000   396.51871     -3380.7472      44.232258     -3336.515      -1201.1128      11907.725      22.835451      22.835451      22.835451    
     49500   399.90194     -3381.3249      44.609663     -3336.7152      1257.0343      11877.407      22.816054      22.816054      22.816054    
     50000   431.98687     -3380.7275      48.188786     -3332.5387     -2414.1296      11932.046      22.850987      22.850987      22.850987    
Loop time of 1137 on 8 procs for 50000 steps with 864 atoms

Performance: 3.799 ns/day, 6.317 hours/ns, 43.976 timesteps/s, 37.995 katom-step/s
96.4% CPU use with 1 MPI tasks x 8 OpenMP threads

MPI task timing breakdown:
Section |  min time  |  avg time  |  max time  |%varavg| %total
---------------------------------------------------------------
Pair    | 1075.1     | 1075.1     | 1075.1     |   0.0 | 94.56
Neigh   | 0.021214   | 0.021214   | 0.021214   |   0.0 |  0.00
Comm    | 1.1048     | 1.1048     | 1.1048     |   0.0 |  0.10
Output  | 0.009141   | 0.009141   | 0.009141   |   0.0 |  0.00
Modify  | 60.548     | 60.548     | 60.548     |   0.0 |  5.33
Other   |            | 0.2072     |            |       |  0.02

Nlocal:            864 ave         864 max         864 min
Histogram: 1 0 0 0 0 0 0 0 0 0
Nghost:           3533 ave        3533 max        3533 min
Histogram: 1 0 0 0 0 0 0 0 0 0
Neighs:          66715 ave       66715 max       66715 min
Histogram: 1 0 0 0 0 0 0 0 0 0
FullNghs:       133430 ave      133430 max      133430 min
Histogram: 1 0 0 0 0 0 0 0 0 0

Total # of neighbors = 133430
Ave neighs/atom = 154.43287
Neighbor list builds = 13
Dangerous builds = 0

=== FINAL RESULTS: FCC at 400 K ===
Atoms: 864 | PE/atom: -3.91153852301207 eV/atom
WARNING: Detected non-ASCII characters in input. Will try to continue by replacing with ASCII equivalents where known. (src/input.cpp:479)
Volume: 11932.0457228174 …³ | Area: 522.16762222915 ²
==========================================
FCC 400 864 -3.91153852301207 11932.0457228174 22.8509873359807 22.8509873359807 22.8509873359807 522.16762222915
Simulation complete!
Total wall time: 0:27:09
