# FCC structure - OPTIMIZED (smaller supercell)
# Composition: {'Al': 0.4, 'Fe': 0.2, 'Ni': 0.4}
# Generated for Assignment 2 - MM309 (Optimized)

864 atoms
3 atom types

0.0 22.48800000 xlo xhi
0.0 22.48800000 ylo yhi
0.0 22.48800000 zlo zhi

Masses

1 26.9815  # Al
2 55.8450  # Fe
3 58.6934  # Ni

Atoms # atomic

1 1 0.00000000 0.00000000 0.00000000
2 1 1.87400000 1.87400000 0.00000000
3 2 1.87400000 0.00000000 1.87400000
4 3 0.00000000 1.87400000 1.87400000
5 3 0.00000000 0.00000000 3.74800000
6 3 1.87400000 1.87400000 3.74800000
7 1 1.87400000 0.00000000 5.62200000
8 3 0.00000000 1.87400000 5.62200000
9 3 0.00000000 0.00000000 7.49600000
10 3 1.87400000 1.87400000 7.49600000
11 1 1.87400000 0.00000000 9.37000000
12 1 0.00000000 1.87400000 9.37000000
13 1 0.00000000 0.00000000 11.24400000
14 2 1.87400000 1.87400000 11.24400000
15 1 1.87400000 0.00000000 13.11800000
16 1 0.00000000 1.87400000 13.11800000
17 1 0.00000000 0.00000000 14.99200000
18 1 1.87400000 1.87400000 14.99200000
19 1 1.87400000 0.00000000 16.86600000
20 3 0.00000000 1.87400000 16.86600000
21 1 0.00000000 0.00000000 18.74000000
22 1 1.87400000 1.87400000 18.74000000
23 1 1.87400000 0.00000000 20.61400000
24 2 0.00000000 1.87400000 20.61400000
25 3 0.00000000 3.74800000 0.00000000
26 2 1.87400000 5.62200000 0.00000000
27 3 1.87400000 3.74800000 1.87400000
28 2 0.00000000 5.62200000 1.87400000
29 3 0.00000000 3.74800000 3.74800000
30 3 1.87400000 5.62200000 3.74800000
31 2 1.87400000 3.74800000 5.62200000
32 1 0.00000000 5.62200000 5.62200000
33 1 0.00000000 3.74800000 7.49600000
34 1 1.87400000 5.62200000 7.49600000
35 3 1.87400000 3.74800000 9.37000000
36 1 0.00000000 5.62200000 9.37000000
37 3 0.00000000 3.74800000 11.24400000
38 1 1.87400000 5.62200000 11.24400000
39 1 1.87400000 3.74800000 13.11800000
40 2 0.00000000 5.62200000 13.11800000
41 3 0.00000000 3.74800000 14.99200000
42 1 1.87400000 5.62200000 14.99200000
43 3 1.87400000 3.74800000 16.86600000
44 3 0.00000000 5.62200000 16.86600000
45 1 0.00000000 3.74800000 18.74000000
46 2 1.87400000 5.62200000 18.74000000
47 3 1.87400000 3.74800000 20.61400000
48 3 0.00000000 5.62200000 20.61400000
49 1 0.00000000 7.49600000 0.00000000
50 2 1.87400000 9.37000000 0.00000000
51 2 1.87400000 7.49600000 1.87400000
52 1 0.00000000 9.37000000 1.87400000
53 1 0.00000000 7.49600000 3.74800000
54 1 1.87400000 9.37000000 3.74800000
55 3 1.87400000 7.49600000 5.62200000
56 3 0.00000000 9.37000000 5.62200000
57 1 0.00000000 7.49600000 7.49600000
58 1 1.87400000 9.37000000 7.49600000
59 3 1.87400000 7.49600000 9.37000000
60 2 0.00000000 9.37000000 9.37000000
61 3 0.00000000 7.49600000 11.24400000
62 1 1.87400000 9.37000000 11.24400000
63 2 1.87400000 7.49600000 13.11800000
64 3 0.00000000 9.37000000 13.11800000
65 1 0.00000000 7.49600000 14.99200000
66 2 1.87400000 9.37000000 14.99200000
67 3 1.87400000 7.49600000 16.86600000
68 3 0.00000000 9.37000000 16.86600000
69 1 0.00000000 7.49600000 18.74000000
70 1 1.87400000 9.37000000 18.74000000
71 3 1.87400000 7.49600000 20.61400000
72 2 0.00000000 9.37000000 20.61400000
73 1 0.00000000 11.24400000 0.00000000
74 3 1.87400000 13.11800000 0.00000000
75 3 1.87400000 11.24400000 1.87400000
76 3 0.00000000 13.11800000 1.87400000
77 1 0.00000000 11.24400000 3.74800000
78 1 1.87400000 13.11800000 3.74800000
79 1 1.87400000 11.24400000 5.62200000
80 3 0.00000000 13.11800000 5.62200000
81 2 0.00000000 11.24400000 7.49600000
82 2 1.87400000 13.11800000 7.49600000
83 3 1.87400000 11.24400000 9.37000000
84 2 0.00000000 13.11800000 9.37000000
85 1 0.00000000 11.24400000 11.24400000
86 3 1.87400000 13.11800000 11.24400000
87 1 1.87400000 11.24400000 13.11800000
88 3 0.00000000 13.11800000 13.11800000
89 2 0.00000000 11.24400000 14.99200000
90 2 1.87400000 13.11800000 14.99200000
91 3 1.87400000 11.24400000 16.86600000
92 2 0.00000000 13.11800000 16.86600000
93 1 0.00000000 11.24400000 18.74000000
94 2 1.87400000 13.11800000 18.74000000
95 1 1.87400000 11.24400000 20.61400000
96 3 0.00000000 13.11800000 20.61400000
97 2 0.00000000 14.99200000 0.00000000
98 2 1.87400000 16.86600000 0.00000000
99 2 1.87400000 14.99200000 1.87400000
100 3 0.00000000 16.86600000 1.87400000
101 3 0.00000000 14.99200000 3.74800000
102 2 1.87400000 16.86600000 3.74800000
103 1 1.87400000 14.99200000 5.62200000
104 2 0.00000000 16.86600000 5.62200000
105 1 0.00000000 14.99200000 7.49600000
106 3 1.87400000 16.86600000 7.49600000
107 1 1.87400000 14.99200000 9.37000000
108 1 0.00000000 16.86600000 9.37000000
109 3 0.00000000 14.99200000 11.24400000
110 1 1.87400000 16.86600000 11.24400000
111 3 1.87400000 14.99200000 13.11800000
112 3 0.00000000 16.86600000 13.11800000
113 2 0.00000000 14.99200000 14.99200000
114 3 1.87400000 16.86600000 14.99200000
115 1 1.87400000 14.99200000 16.86600000
116 1 0.00000000 16.86600000 16.86600000
117 2 0.00000000 14.99200000 18.74000000
118 2 1.87400000 16.86600000 18.74000000
119 1 1.87400000 14.99200000 20.61400000
120 3 0.00000000 16.86600000 20.61400000
121 3 0.00000000 18.74000000 0.00000000
122 2 1.87400000 20.61400000 0.00000000
123 3 1.87400000 18.74000000 1.87400000
124 2 0.00000000 20.61400000 1.87400000
125 3 0.00000000 18.74000000 3.74800000
126 3 1.87400000 20.61400000 3.74800000
127 3 1.87400000 18.74000000 5.62200000
128 1 0.00000000 20.61400000 5.62200000
129 1 0.00000000 18.74000000 7.49600000
130 2 1.87400000 20.61400000 7.49600000
131 1 1.87400000 18.74000000 9.37000000
132 3 0.00000000 20.61400000 9.37000000
133 1 0.00000000 18.74000000 11.24400000
134 1 1.87400000 20.61400000 11.24400000
135 3 1.87400000 18.74000000 13.11800000
136 1 0.00000000 20.61400000 13.11800000
137 3 0.00000000 18.74000000 14.99200000
138 2 1.87400000 20.61400000 14.99200000
139 2 1.87400000 18.74000000 16.86600000
140 3 0.00000000 20.61400000 16.86600000
141 3 0.00000000 18.74000000 18.74000000
142 2 1.87400000 20.61400000 18.74000000
143 2 1.87400000 18.74000000 20.61400000
144 2 0.00000000 20.61400000 20.61400000
145 2 3.74800000 0.00000000 0.00000000
146 1 5.62200000 1.87400000 0.00000000
147 2 5.62200000 0.00000000 1.87400000
148 2 3.74800000 1.87400000 1.87400000
149 3 3.74800000 0.00000000 3.74800000
150 1 5.62200000 1.87400000 3.74800000
151 3 5.62200000 0.00000000 5.62200000
152 1 3.74800000 1.87400000 5.62200000
153 2 3.74800000 0.00000000 7.49600000
154 1 5.62200000 1.87400000 7.49600000
155 3 5.62200000 0.00000000 9.37000000
156 1 3.74800000 1.87400000 9.37000000
157 1 3.74800000 0.00000000 11.24400000
158 3 5.62200000 1.87400000 11.24400000
159 1 5.62200000 0.00000000 13.11800000
160 3 3.74800000 1.87400000 13.11800000
161 3 3.74800000 0.00000000 14.99200000
162 3 5.62200000 1.87400000 14.99200000
163 3 5.62200000 0.00000000 16.86600000
164 3 3.74800000 1.87400000 16.86600000
165 3 3.74800000 0.00000000 18.74000000
166 1 5.62200000 1.87400000 18.74000000
167 1 5.62200000 0.00000000 20.61400000
168 3 3.74800000 1.87400000 20.61400000
169 3 3.74800000 3.74800000 0.00000000
170 1 5.62200000 5.62200000 0.00000000
171 2 5.62200000 3.74800000 1.87400000
172 1 3.74800000 5.62200000 1.87400000
173 1 3.74800000 3.74800000 3.74800000
174 1 5.62200000 5.62200000 3.74800000
175 3 5.62200000 3.74800000 5.62200000
176 1 3.74800000 5.62200000 5.62200000
177 3 3.74800000 3.74800000 7.49600000
178 2 5.62200000 5.62200000 7.49600000
179 3 5.62200000 3.74800000 9.37000000
180 2 3.74800000 5.62200000 9.37000000
181 3 3.74800000 3.74800000 11.24400000
182 2 5.62200000 5.62200000 11.24400000
183 3 5.62200000 3.74800000 13.11800000
184 3 3.74800000 5.62200000 13.11800000
185 3 3.74800000 3.74800000 14.99200000
186 1 5.62200000 5.62200000 14.99200000
187 1 5.62200000 3.74800000 16.86600000
188 1 3.74800000 5.62200000 16.86600000
189 1 3.74800000 3.74800000 18.74000000
190 3 5.62200000 5.62200000 18.74000000
191 3 5.62200000 3.74800000 20.61400000
192 3 3.74800000 5.62200000 20.61400000
193 3 3.74800000 7.49600000 0.00000000
194 1 5.62200000 9.37000000 0.00000000
195 3 5.62200000 7.49600000 1.87400000
196 3 3.74800000 9.37000000 1.87400000
197 3 3.74800000 7.49600000 3.74800000
198 3 5.62200000 9.37000000 3.74800000
199 3 5.62200000 7.49600000 5.62200000
200 2 3.74800000 9.37000000 5.62200000
201 1 3.74800000 7.49600000 7.49600000
202 1 5.62200000 9.37000000 7.49600000
203 2 5.62200000 7.49600000 9.37000000
204 3 3.74800000 9.37000000 9.37000000
205 3 3.74800000 7.49600000 11.24400000
206 3 5.62200000 9.37000000 11.24400000
207 1 5.62200000 7.49600000 13.11800000
208 1 3.74800000 9.37000000 13.11800000
209 1 3.74800000 7.49600000 14.99200000
210 3 5.62200000 9.37000000 14.99200000
211 2 5.62200000 7.49600000 16.86600000
212 3 3.74800000 9.37000000 16.86600000
213 3 3.74800000 7.49600000 18.74000000
214 1 5.62200000 9.37000000 18.74000000
215 2 5.62200000 7.49600000 20.61400000
216 3 3.74800000 9.37000000 20.61400000
217 3 3.74800000 11.24400000 0.00000000
218 2 5.62200000 13.11800000 0.00000000
219 1 5.62200000 11.24400000 1.87400000
220 1 3.74800000 13.11800000 1.87400000
221 2 3.74800000 11.24400000 3.74800000
222 1 5.62200000 13.11800000 3.74800000
223 1 5.62200000 11.24400000 5.62200000
224 1 3.74800000 13.11800000 5.62200000
225 1 3.74800000 11.24400000 7.49600000
226 3 5.62200000 13.11800000 7.49600000
227 3 5.62200000 11.24400000 9.37000000
228 1 3.74800000 13.11800000 9.37000000
229 2 3.74800000 11.24400000 11.24400000
230 1 5.62200000 13.11800000 11.24400000
231 1 5.62200000 11.24400000 13.11800000
232 1 3.74800000 13.11800000 13.11800000
233 1 3.74800000 11.24400000 14.99200000
234 1 5.62200000 13.11800000 14.99200000
235 3 5.62200000 11.24400000 16.86600000
236 1 3.74800000 13.11800000 16.86600000
237 3 3.74800000 11.24400000 18.74000000
238 1 5.62200000 13.11800000 18.74000000
239 1 5.62200000 11.24400000 20.61400000
240 1 3.74800000 13.11800000 20.61400000
241 2 3.74800000 14.99200000 0.00000000
242 3 5.62200000 16.86600000 0.00000000
243 3 5.62200000 14.99200000 1.87400000
244 3 3.74800000 16.86600000 1.87400000
245 3 3.74800000 14.99200000 3.74800000
246 3 5.62200000 16.86600000 3.74800000
247 1 5.62200000 14.99200000 5.62200000
248 2 3.74800000 16.86600000 5.62200000
249 1 3.74800000 14.99200000 7.49600000
250 1 5.62200000 16.86600000 7.49600000
251 3 5.62200000 14.99200000 9.37000000
252 3 3.74800000 16.86600000 9.37000000
253 1 3.74800000 14.99200000 11.24400000
254 1 5.62200000 16.86600000 11.24400000
255 3 5.62200000 14.99200000 13.11800000
256 1 3.74800000 16.86600000 13.11800000
257 1 3.74800000 14.99200000 14.99200000
258 1 5.62200000 16.86600000 14.99200000
259 3 5.62200000 14.99200000 16.86600000
260 3 3.74800000 16.86600000 16.86600000
261 1 3.74800000 14.99200000 18.74000000
262 1 5.62200000 16.86600000 18.74000000
263 1 5.62200000 14.99200000 20.61400000
264 3 3.74800000 16.86600000 20.61400000
265 3 3.74800000 18.74000000 0.00000000
266 1 5.62200000 20.61400000 0.00000000
267 2 5.62200000 18.74000000 1.87400000
268 1 3.74800000 20.61400000 1.87400000
269 3 3.74800000 18.74000000 3.74800000
270 1 5.62200000 20.61400000 3.74800000
271 3 5.62200000 18.74000000 5.62200000
272 3 3.74800000 20.61400000 5.62200000
273 3 3.74800000 18.74000000 7.49600000
274 1 5.62200000 20.61400000 7.49600000
275 3 5.62200000 18.74000000 9.37000000
276 1 3.74800000 20.61400000 9.37000000
277 3 3.74800000 18.74000000 11.24400000
278 3 5.62200000 20.61400000 11.24400000
279 3 5.62200000 18.74000000 13.11800000
280 3 3.74800000 20.61400000 13.11800000
281 1 3.74800000 18.74000000 14.99200000
282 2 5.62200000 20.61400000 14.99200000
283 2 5.62200000 18.74000000 16.86600000
284 3 3.74800000 20.61400000 16.86600000
285 2 3.74800000 18.74000000 18.74000000
286 2 5.62200000 20.61400000 18.74000000
287 1 5.62200000 18.74000000 20.61400000
288 1 3.74800000 20.61400000 20.61400000
289 1 7.49600000 0.00000000 0.00000000
290 2 9.37000000 1.87400000 0.00000000
291 2 9.37000000 0.00000000 1.87400000
292 3 7.49600000 1.87400000 1.87400000
293 1 7.49600000 0.00000000 3.74800000
294 1 9.37000000 1.87400000 3.74800000
295 1 9.37000000 0.00000000 5.62200000
296 2 7.49600000 1.87400000 5.62200000
297 1 7.49600000 0.00000000 7.49600000
298 3 9.37000000 1.87400000 7.49600000
299 1 9.37000000 0.00000000 9.37000000
300 1 7.49600000 1.87400000 9.37000000
301 3 7.49600000 0.00000000 11.24400000
302 1 9.37000000 1.87400000 11.24400000
303 1 9.37000000 0.00000000 13.11800000
304 1 7.49600000 1.87400000 13.11800000
305 3 7.49600000 0.00000000 14.99200000
306 3 9.37000000 1.87400000 14.99200000
307 1 9.37000000 0.00000000 16.86600000
308 1 7.49600000 1.87400000 16.86600000
309 2 7.49600000 0.00000000 18.74000000
310 3 9.37000000 1.87400000 18.74000000
311 2 9.37000000 0.00000000 20.61400000
312 1 7.49600000 1.87400000 20.61400000
313 1 7.49600000 3.74800000 0.00000000
314 3 9.37000000 5.62200000 0.00000000
315 1 9.37000000 3.74800000 1.87400000
316 1 7.49600000 5.62200000 1.87400000
317 1 7.49600000 3.74800000 3.74800000
318 3 9.37000000 5.62200000 3.74800000
319 1 9.37000000 3.74800000 5.62200000
320 1 7.49600000 5.62200000 5.62200000
321 1 7.49600000 3.74800000 7.49600000
322 3 9.37000000 5.62200000 7.49600000
323 2 9.37000000 3.74800000 9.37000000
324 1 7.49600000 5.62200000 9.37000000
325 3 7.49600000 3.74800000 11.24400000
326 2 9.37000000 5.62200000 11.24400000
327 3 9.37000000 3.74800000 13.11800000
328 2 7.49600000 5.62200000 13.11800000
329 1 7.49600000 3.74800000 14.99200000
330 3 9.37000000 5.62200000 14.99200000
331 1 9.37000000 3.74800000 16.86600000
332 2 7.49600000 5.62200000 16.86600000
333 3 7.49600000 3.74800000 18.74000000
334 1 9.37000000 5.62200000 18.74000000
335 1 9.37000000 3.74800000 20.61400000
336 1 7.49600000 5.62200000 20.61400000
337 1 7.49600000 7.49600000 0.00000000
338 1 9.37000000 9.37000000 0.00000000
339 1 9.37000000 7.49600000 1.87400000
340 2 7.49600000 9.37000000 1.87400000
341 3 7.49600000 7.49600000 3.74800000
342 1 9.37000000 9.37000000 3.74800000
343 3 9.37000000 7.49600000 5.62200000
344 1 7.49600000 9.37000000 5.62200000
345 3 7.49600000 7.49600000 7.49600000
346 1 9.37000000 9.37000000 7.49600000
347 3 9.37000000 7.49600000 9.37000000
348 3 7.49600000 9.37000000 9.37000000
349 2 7.49600000 7.49600000 11.24400000
350 1 9.37000000 9.37000000 11.24400000
351 1 9.37000000 7.49600000 13.11800000
352 1 7.49600000 9.37000000 13.11800000
353 1 7.49600000 7.49600000 14.99200000
354 2 9.37000000 9.37000000 14.99200000
355 3 9.37000000 7.49600000 16.86600000
356 2 7.49600000 9.37000000 16.86600000
357 1 7.49600000 7.49600000 18.74000000
358 2 9.37000000 9.37000000 18.74000000
359 3 9.37000000 7.49600000 20.61400000
360 1 7.49600000 9.37000000 20.61400000
361 1 7.49600000 11.24400000 0.00000000
362 2 9.37000000 13.11800000 0.00000000
363 3 9.37000000 11.24400000 1.87400000
364 3 7.49600000 13.11800000 1.87400000
365 3 7.49600000 11.24400000 3.74800000
366 1 9.37000000 13.11800000 3.74800000
367 2 9.37000000 11.24400000 5.62200000
368 1 7.49600000 13.11800000 5.62200000
369 3 7.49600000 11.24400000 7.49600000
370 1 9.37000000 13.11800000 7.49600000
371 2 9.37000000 11.24400000 9.37000000
372 1 7.49600000 13.11800000 9.37000000
373 2 7.49600000 11.24400000 11.24400000
374 3 9.37000000 13.11800000 11.24400000
375 3 9.37000000 11.24400000 13.11800000
376 1 7.49600000 13.11800000 13.11800000
377 3 7.49600000 11.24400000 14.99200000
378 3 9.37000000 13.11800000 14.99200000
379 2 9.37000000 11.24400000 16.86600000
380 3 7.49600000 13.11800000 16.86600000
381 3 7.49600000 11.24400000 18.74000000
382 3 9.37000000 13.11800000 18.74000000
383 1 9.37000000 11.24400000 20.61400000
384 3 7.49600000 13.11800000 20.61400000
385 3 7.49600000 14.99200000 0.00000000
386 3 9.37000000 16.86600000 0.00000000
387 1 9.37000000 14.99200000 1.87400000
388 3 7.49600000 16.86600000 1.87400000
389 1 7.49600000 14.99200000 3.74800000
390 2 9.37000000 16.86600000 3.74800000
391 1 9.37000000 14.99200000 5.62200000
392 1 7.49600000 16.86600000 5.62200000
393 3 7.49600000 14.99200000 7.49600000
394 1 9.37000000 16.86600000 7.49600000
395 2 9.37000000 14.99200000 9.37000000
396 3 7.49600000 16.86600000 9.37000000
397 1 7.49600000 14.99200000 11.24400000
398 1 9.37000000 16.86600000 11.24400000
399 3 9.37000000 14.99200000 13.11800000
400 1 7.49600000 16.86600000 13.11800000
401 2 7.49600000 14.99200000 14.99200000
402 1 9.37000000 16.86600000 14.99200000
403 3 9.37000000 14.99200000 16.86600000
404 3 7.49600000 16.86600000 16.86600000
405 1 7.49600000 14.99200000 18.74000000
406 1 9.37000000 16.86600000 18.74000000
407 3 9.37000000 14.99200000 20.61400000
408 3 7.49600000 16.86600000 20.61400000
409 2 7.49600000 18.74000000 0.00000000
410 2 9.37000000 20.61400000 0.00000000
411 1 9.37000000 18.74000000 1.87400000
412 3 7.49600000 20.61400000 1.87400000
413 2 7.49600000 18.74000000 3.74800000
414 3 9.37000000 20.61400000 3.74800000
415 3 9.37000000 18.74000000 5.62200000
416 3 7.49600000 20.61400000 5.62200000
417 1 7.49600000 18.74000000 7.49600000
418 1 9.37000000 20.61400000 7.49600000
419 3 9.37000000 18.74000000 9.37000000
420 2 7.49600000 20.61400000 9.37000000
421 2 7.49600000 18.74000000 11.24400000
422 1 9.37000000 20.61400000 11.24400000
423 3 9.37000000 18.74000000 13.11800000
424 2 7.49600000 20.61400000 13.11800000
425 3 7.49600000 18.74000000 14.99200000
426 1 9.37000000 20.61400000 14.99200000
427 3 9.37000000 18.74000000 16.86600000
428 1 7.49600000 20.61400000 16.86600000
429 3 7.49600000 18.74000000 18.74000000
430 3 9.37000000 20.61400000 18.74000000
431 1 9.37000000 18.74000000 20.61400000
432 3 7.49600000 20.61400000 20.61400000
433 3 11.24400000 0.00000000 0.00000000
434 2 13.11800000 1.87400000 0.00000000
435 1 13.11800000 0.00000000 1.87400000
436 3 11.24400000 1.87400000 1.87400000
437 3 11.24400000 0.00000000 3.74800000
438 1 13.11800000 1.87400000 3.74800000
439 2 13.11800000 0.00000000 5.62200000
440 3 11.24400000 1.87400000 5.62200000
441 3 11.24400000 0.00000000 7.49600000
442 3 13.11800000 1.87400000 7.49600000
443 3 13.11800000 0.00000000 9.37000000
444 2 11.24400000 1.87400000 9.37000000
445 3 11.24400000 0.00000000 11.24400000
446 3 13.11800000 1.87400000 11.24400000
447 2 13.11800000 0.00000000 13.11800000
448 1 11.24400000 1.87400000 13.11800000
449 3 11.24400000 0.00000000 14.99200000
450 3 13.11800000 1.87400000 14.99200000
451 1 13.11800000 0.00000000 16.86600000
452 2 11.24400000 1.87400000 16.86600000
453 1 11.24400000 0.00000000 18.74000000
454 2 13.11800000 1.87400000 18.74000000
455 3 13.11800000 0.00000000 20.61400000
456 3 11.24400000 1.87400000 20.61400000
457 3 11.24400000 3.74800000 0.00000000
458 3 13.11800000 5.62200000 0.00000000
459 3 13.11800000 3.74800000 1.87400000
460 1 11.24400000 5.62200000 1.87400000
461 2 11.24400000 3.74800000 3.74800000
462 3 13.11800000 5.62200000 3.74800000
463 1 13.11800000 3.74800000 5.62200000
464 2 11.24400000 5.62200000 5.62200000
465 2 11.24400000 3.74800000 7.49600000
466 3 13.11800000 5.62200000 7.49600000
467 1 13.11800000 3.74800000 9.37000000
468 3 11.24400000 5.62200000 9.37000000
469 3 11.24400000 3.74800000 11.24400000
470 1 13.11800000 5.62200000 11.24400000
471 3 13.11800000 3.74800000 13.11800000
472 2 11.24400000 5.62200000 13.11800000
473 3 11.24400000 3.74800000 14.99200000
474 3 13.11800000 5.62200000 14.99200000
475 1 13.11800000 3.74800000 16.86600000
476 3 11.24400000 5.62200000 16.86600000
477 3 11.24400000 3.74800000 18.74000000
478 1 13.11800000 5.62200000 18.74000000
479 3 13.11800000 3.74800000 20.61400000
480 2 11.24400000 5.62200000 20.61400000
481 3 11.24400000 7.49600000 0.00000000
482 1 13.11800000 9.37000000 0.00000000
483 2 13.11800000 7.49600000 1.87400000
484 1 11.24400000 9.37000000 1.87400000
485 1 11.24400000 7.49600000 3.74800000
486 3 13.11800000 9.37000000 3.74800000
487 3 13.11800000 7.49600000 5.62200000
488 1 11.24400000 9.37000000 5.62200000
489 1 11.24400000 7.49600000 7.49600000
490 1 13.11800000 9.37000000 7.49600000
491 3 13.11800000 7.49600000 9.37000000
492 2 11.24400000 9.37000000 9.37000000
493 3 11.24400000 7.49600000 11.24400000
494 3 13.11800000 9.37000000 11.24400000
495 1 13.11800000 7.49600000 13.11800000
496 1 11.24400000 9.37000000 13.11800000
497 1 11.24400000 7.49600000 14.99200000
498 2 13.11800000 9.37000000 14.99200000
499 3 13.11800000 7.49600000 16.86600000
500 2 11.24400000 9.37000000 16.86600000
501 1 11.24400000 7.49600000 18.74000000
502 3 13.11800000 9.37000000 18.74000000
503 3 13.11800000 7.49600000 20.61400000
504 3 11.24400000 9.37000000 20.61400000
505 2 11.24400000 11.24400000 0.00000000
506 2 13.11800000 13.11800000 0.00000000
507 3 13.11800000 11.24400000 1.87400000
508 1 11.24400000 13.11800000 1.87400000
509 1 11.24400000 11.24400000 3.74800000
510 2 13.11800000 13.11800000 3.74800000
511 1 13.11800000 11.24400000 5.62200000
512 3 11.24400000 13.11800000 5.62200000
513 3 11.24400000 11.24400000 7.49600000
514 1 13.11800000 13.11800000 7.49600000
515 1 13.11800000 11.24400000 9.37000000
516 1 11.24400000 13.11800000 9.37000000
517 3 11.24400000 11.24400000 11.24400000
518 1 13.11800000 13.11800000 11.24400000
519 1 13.11800000 11.24400000 13.11800000
520 1 11.24400000 13.11800000 13.11800000
521 3 11.24400000 11.24400000 14.99200000
522 2 13.11800000 13.11800000 14.99200000
523 1 13.11800000 11.24400000 16.86600000
524 1 11.24400000 13.11800000 16.86600000
525 3 11.24400000 11.24400000 18.74000000
526 1 13.11800000 13.11800000 18.74000000
527 2 13.11800000 11.24400000 20.61400000
528 1 11.24400000 13.11800000 20.61400000
529 1 11.24400000 14.99200000 0.00000000
530 3 13.11800000 16.86600000 0.00000000
531 2 13.11800000 14.99200000 1.87400000
532 1 11.24400000 16.86600000 1.87400000
533 2 11.24400000 14.99200000 3.74800000
534 3 13.11800000 16.86600000 3.74800000
535 2 13.11800000 14.99200000 5.62200000
536 1 11.24400000 16.86600000 5.62200000
537 3 11.24400000 14.99200000 7.49600000
538 3 13.11800000 16.86600000 7.49600000
539 3 13.11800000 14.99200000 9.37000000
540 3 11.24400000 16.86600000 9.37000000
541 1 11.24400000 14.99200000 11.24400000
542 2 13.11800000 16.86600000 11.24400000
543 1 13.11800000 14.99200000 13.11800000
544 3 11.24400000 16.86600000 13.11800000
545 3 11.24400000 14.99200000 14.99200000
546 1 13.11800000 16.86600000 14.99200000
547 3 13.11800000 14.99200000 16.86600000
548 2 11.24400000 16.86600000 16.86600000
549 1 11.24400000 14.99200000 18.74000000
550 1 13.11800000 16.86600000 18.74000000
551 1 13.11800000 14.99200000 20.61400000
552 1 11.24400000 16.86600000 20.61400000
553 3 11.24400000 18.74000000 0.00000000
554 2 13.11800000 20.61400000 0.00000000
555 1 13.11800000 18.74000000 1.87400000
556 3 11.24400000 20.61400000 1.87400000
557 2 11.24400000 18.74000000 3.74800000
558 3 13.11800000 20.61400000 3.74800000
559 3 13.11800000 18.74000000 5.62200000
560 1 11.24400000 20.61400000 5.62200000
561 3 11.24400000 18.74000000 7.49600000
562 1 13.11800000 20.61400000 7.49600000
563 3 13.11800000 18.74000000 9.37000000
564 3 11.24400000 20.61400000 9.37000000
565 1 11.24400000 18.74000000 11.24400000
566 3 13.11800000 20.61400000 11.24400000
567 3 13.11800000 18.74000000 13.11800000
568 3 11.24400000 20.61400000 13.11800000
569 2 11.24400000 18.74000000 14.99200000
570 2 13.11800000 20.61400000 14.99200000
571 2 13.11800000 18.74000000 16.86600000
572 2 11.24400000 20.61400000 16.86600000
573 1 11.24400000 18.74000000 18.74000000
574 2 13.11800000 20.61400000 18.74000000
575 3 13.11800000 18.74000000 20.61400000
576 3 11.24400000 20.61400000 20.61400000
577 1 14.99200000 0.00000000 0.00000000
578 2 16.86600000 1.87400000 0.00000000
579 1 16.86600000 0.00000000 1.87400000
580 1 14.99200000 1.87400000 1.87400000
581 3 14.99200000 0.00000000 3.74800000
582 1 16.86600000 1.87400000 3.74800000
583 2 16.86600000 0.00000000 5.62200000
584 3 14.99200000 1.87400000 5.62200000
585 1 14.99200000 0.00000000 7.49600000
586 1 16.86600000 1.87400000 7.49600000
587 3 16.86600000 0.00000000 9.37000000
588 1 14.99200000 1.87400000 9.37000000
589 2 14.99200000 0.00000000 11.24400000
590 1 16.86600000 1.87400000 11.24400000
591 1 16.86600000 0.00000000 13.11800000
592 1 14.99200000 1.87400000 13.11800000
593 1 14.99200000 0.00000000 14.99200000
594 1 16.86600000 1.87400000 14.99200000
595 3 16.86600000 0.00000000 16.86600000
596 1 14.99200000 1.87400000 16.86600000
597 2 14.99200000 0.00000000 18.74000000
598 1 16.86600000 1.87400000 18.74000000
599 3 16.86600000 0.00000000 20.61400000
600 1 14.99200000 1.87400000 20.61400000
601 3 14.99200000 3.74800000 0.00000000
602 1 16.86600000 5.62200000 0.00000000
603 2 16.86600000 3.74800000 1.87400000
604 3 14.99200000 5.62200000 1.87400000
605 1 14.99200000 3.74800000 3.74800000
606 3 16.86600000 5.62200000 3.74800000
607 2 16.86600000 3.74800000 5.62200000
608 3 14.99200000 5.62200000 5.62200000
609 3 14.99200000 3.74800000 7.49600000
610 2 16.86600000 5.62200000 7.49600000
611 2 16.86600000 3.74800000 9.37000000
612 2 14.99200000 5.62200000 9.37000000
613 3 14.99200000 3.74800000 11.24400000
614 3 16.86600000 5.62200000 11.24400000
615 3 16.86600000 3.74800000 13.11800000
616 3 14.99200000 5.62200000 13.11800000
617 1 14.99200000 3.74800000 14.99200000
618 3 16.86600000 5.62200000 14.99200000
619 2 16.86600000 3.74800000 16.86600000
620 3 14.99200000 5.62200000 16.86600000
621 1 14.99200000 3.74800000 18.74000000
622 2 16.86600000 5.62200000 18.74000000
623 2 16.86600000 3.74800000 20.61400000
624 2 14.99200000 5.62200000 20.61400000
625 2 14.99200000 7.49600000 0.00000000
626 1 16.86600000 9.37000000 0.00000000
627 3 16.86600000 7.49600000 1.87400000
628 3 14.99200000 9.37000000 1.87400000
629 3 14.99200000 7.49600000 3.74800000
630 3 16.86600000 9.37000000 3.74800000
631 1 16.86600000 7.49600000 5.62200000
632 3 14.99200000 9.37000000 5.62200000
633 3 14.99200000 7.49600000 7.49600000
634 2 16.86600000 9.37000000 7.49600000
635 1 16.86600000 7.49600000 9.37000000
636 2 14.99200000 9.37000000 9.37000000
637 3 14.99200000 7.49600000 11.24400000
638 1 16.86600000 9.37000000 11.24400000
639 1 16.86600000 7.49600000 13.11800000
640 1 14.99200000 9.37000000 13.11800000
641 3 14.99200000 7.49600000 14.99200000
642 3 16.86600000 9.37000000 14.99200000
643 1 16.86600000 7.49600000 16.86600000
644 1 14.99200000 9.37000000 16.86600000
645 1 14.99200000 7.49600000 18.74000000
646 1 16.86600000 9.37000000 18.74000000
647 1 16.86600000 7.49600000 20.61400000
648 1 14.99200000 9.37000000 20.61400000
649 3 14.99200000 11.24400000 0.00000000
650 1 16.86600000 13.11800000 0.00000000
651 1 16.86600000 11.24400000 1.87400000
652 3 14.99200000 13.11800000 1.87400000
653 3 14.99200000 11.24400000 3.74800000
654 1 16.86600000 13.11800000 3.74800000
655 1 16.86600000 11.24400000 5.62200000
656 1 14.99200000 13.11800000 5.62200000
657 1 14.99200000 11.24400000 7.49600000
658 3 16.86600000 13.11800000 7.49600000
659 1 16.86600000 11.24400000 9.37000000
660 1 14.99200000 13.11800000 9.37000000
661 3 14.99200000 11.24400000 11.24400000
662 1 16.86600000 13.11800000 11.24400000
663 3 16.86600000 11.24400000 13.11800000
664 1 14.99200000 13.11800000 13.11800000
665 1 14.99200000 11.24400000 14.99200000
666 3 16.86600000 13.11800000 14.99200000
667 3 16.86600000 11.24400000 16.86600000
668 1 14.99200000 13.11800000 16.86600000
669 3 14.99200000 11.24400000 18.74000000
670 1 16.86600000 13.11800000 18.74000000
671 1 16.86600000 11.24400000 20.61400000
672 3 14.99200000 13.11800000 20.61400000
673 3 14.99200000 14.99200000 0.00000000
674 3 16.86600000 16.86600000 0.00000000
675 2 16.86600000 14.99200000 1.87400000
676 3 14.99200000 16.86600000 1.87400000
677 2 14.99200000 14.99200000 3.74800000
678 3 16.86600000 16.86600000 3.74800000
679 3 16.86600000 14.99200000 5.62200000
680 2 14.99200000 16.86600000 5.62200000
681 1 14.99200000 14.99200000 7.49600000
682 1 16.86600000 16.86600000 7.49600000
683 1 16.86600000 14.99200000 9.37000000
684 2 14.99200000 16.86600000 9.37000000
685 3 14.99200000 14.99200000 11.24400000
686 2 16.86600000 16.86600000 11.24400000
687 1 16.86600000 14.99200000 13.11800000
688 1 14.99200000 16.86600000 13.11800000
689 3 14.99200000 14.99200000 14.99200000
690 2 16.86600000 16.86600000 14.99200000
691 1 16.86600000 14.99200000 16.86600000
692 3 14.99200000 16.86600000 16.86600000
693 2 14.99200000 14.99200000 18.74000000
694 2 16.86600000 16.86600000 18.74000000
695 2 16.86600000 14.99200000 20.61400000
696 3 14.99200000 16.86600000 20.61400000
697 3 14.99200000 18.74000000 0.00000000
698 1 16.86600000 20.61400000 0.00000000
699 2 16.86600000 18.74000000 1.87400000
700 3 14.99200000 20.61400000 1.87400000
701 2 14.99200000 18.74000000 3.74800000
702 3 16.86600000 20.61400000 3.74800000
703 3 16.86600000 18.74000000 5.62200000
704 1 14.99200000 20.61400000 5.62200000
705 1 14.99200000 18.74000000 7.49600000
706 3 16.86600000 20.61400000 7.49600000
707 3 16.86600000 18.74000000 9.37000000
708 1 14.99200000 20.61400000 9.37000000
709 3 14.99200000 18.74000000 11.24400000
710 1 16.86600000 20.61400000 11.24400000
711 2 16.86600000 18.74000000 13.11800000
712 3 14.99200000 20.61400000 13.11800000
713 3 14.99200000 18.74000000 14.99200000
714 3 16.86600000 20.61400000 14.99200000
715 2 16.86600000 18.74000000 16.86600000
716 1 14.99200000 20.61400000 16.86600000
717 1 14.99200000 18.74000000 18.74000000
718 1 16.86600000 20.61400000 18.74000000
719 3 16.86600000 18.74000000 20.61400000
720 1 14.99200000 20.61400000 20.61400000
721 1 18.74000000 0.00000000 0.00000000
722 1 20.61400000 1.87400000 0.00000000
723 1 20.61400000 0.00000000 1.87400000
724 1 18.74000000 1.87400000 1.87400000
725 2 18.74000000 0.00000000 3.74800000
726 2 20.61400000 1.87400000 3.74800000
727 3 20.61400000 0.00000000 5.62200000
728 2 18.74000000 1.87400000 5.62200000
729 2 18.74000000 0.00000000 7.49600000
730 3 20.61400000 1.87400000 7.49600000
731 3 20.61400000 0.00000000 9.37000000
732 3 18.74000000 1.87400000 9.37000000
733 2 18.74000000 0.00000000 11.24400000
734 2 20.61400000 1.87400000 11.24400000
735 1 20.61400000 0.00000000 13.11800000
736 3 18.74000000 1.87400000 13.11800000
737 3 18.74000000 0.00000000 14.99200000