LAMMPS (10 Sep 2025)
  using 8 OpenMP thread(s) per MPI task
Loaded 1 plugins from C:\Users\harsh\Downloads\LAMMPS 64-bit 10Sep2025\plugins
using multi-threaded neighbor list subroutines
Reading data file ...
  orthogonal box = (0 0 0) to (14.934095 25.866612 24.387275)
  1 by 1 by 1 MPI processor grid
  reading atoms ...
  432 atoms
  read_data CPU = 0.002 seconds
=== STAGE 1: Energy Minimization ===
Switching to 'neigh_modify every 1 delay 0 check yes' setting during minimization
No /omp style for force computation currently active
Neighbor list info ...
  update: every = 1 steps, delay = 0 steps, check = yes
  max neighbors/atom: 4000, page size: 100000
  master list distance cutoff = 8
  ghost atom cutoff = 8
  binsize = 4, bins = 4 7 7
  2 neighbor lists, perpetual/occasional/extra = 2 0 0
  (1) pair meam, perpetual
      attributes: full, newton on, omp
      pair build: full/bin/atomonly/omp
      stencil: full/bin/3d
      bin: standard
  (2) pair meam, perpetual, half/full from (1)
      attributes: half, newton on, omp
      pair build: halffull/newton/omp
      stencil: none
      bin: none
Setting up cg style minimization ...
  Unit style    : metal
  Current step  : 0
Per MPI rank memory allocation (min/avg/max) = 19.42 | 19.42 | 19.42 Mbytes
   Step          Temp          PotEng         KinEng         TotEng         Press          Volume           Lx             Ly             Lz      
         0   0             -1636.4676      0             -1636.4676     -122627.01      9420.6689      14.934095      25.866612      24.387275    
         4   0             -1637.2267      0             -1637.2267     -146445.22      9420.6689      14.934095      25.866612      24.387275    
Loop time of 0.064846 on 8 procs for 4 steps with 432 atoms

72.3% CPU use with 1 MPI tasks x 8 OpenMP threads

Minimization stats:
  Stopping criterion = energy tolerance
  Energy initial, next-to-last, final = 
     -1636.46757241596  -1637.22666960089  -1637.22667528153
  Force two-norm initial, final = 4.7453581 0.005153183
  Force max component initial, final = 0.3228808 0.00054919302
  Final line search alpha, max atom move = 1 0.00054919302
  Iterations, force evaluations = 4 11

MPI task timing breakdown:
Section |  min time  |  avg time  |  max time  |%varavg| %total
---------------------------------------------------------------
Pair    | 0.061055   | 0.061055   | 0.061055   |   0.0 | 94.15
Neigh   | 0          | 0          | 0          |   0.0 |  0.00
Comm    | 4.8e-05    | 4.8e-05    | 4.8e-05    |   0.0 |  0.07
Output  | 0          | 0          | 0          |   0.0 |  0.00
Modify  | 0.00358    | 0.00358    | 0.00358    |   0.0 |  5.52
Other   |            | 0.000163   |            |       |  0.25

Nlocal:            432 ave         432 max         432 min
Histogram: 1 0 0 0 0 0 0 0 0 0
Nghost:           1761 ave        1761 max        1761 min
Histogram: 1 0 0 0 0 0 0 0 0 0
Neighs:          20952 ave       20952 max       20952 min
Histogram: 1 0 0 0 0 0 0 0 0 0
FullNghs:        41904 ave       41904 max       41904 min
Histogram: 1 0 0 0 0 0 0 0 0 0

Total # of neighbors = 41904
Ave neighs/atom = 97
Neighbor list builds = 0
Dangerous builds = 0
Minimized PE/atom: -3.78987656315168 eV/atom
=== STAGE 2: NPT Equilibration at 400 K ===
No /omp style for force computation currently active
Setting up Verlet run ...
  Unit style    : metal
  Current step  : 0
  Time step     : 0.002
Per MPI rank memory allocation (min/avg/max) = 18.3 | 18.3 | 18.3 Mbytes
   Step          Temp          PotEng         KinEng         TotEng         Press          Volume           Lx             Ly             Lz      
         0   400           -1637.2267      22.284449     -1614.9422     -143918.6       9420.6689      14.934095      25.866612      24.387275    
       500   534.51203     -1883.6937      29.778265     -1853.9154     -834.43281      5833.3784      12.728925      22.047144      20.786247    
      1000   401.86002     -1912.4541      22.388073     -1890.066       3144.8235      5575.2003      12.538295      21.716965      20.474951    
      1500   374.50837     -1912.8832      20.864282     -1892.019      -1722.4848      5593.533       12.552023      21.740742      20.497368    
      2000   422.66333     -1912.1762      23.547048     -1888.6291      1443.9237      5585.8485      12.546273      21.730782      20.487977    
      2500   399.12677     -1913.4069      22.2358       -1891.1711      2629.9662      5585.6135      12.546097      21.730477      20.48769     
      3000   388.277       -1915.8595      21.631347     -1894.2281      1672.8156      5567.2676      12.532346      21.70666       20.465235    
      3500   397.40944     -1915.5767      22.140126     -1893.4366      1057.0341      5570.6574      12.534889      21.711064      20.469388    
      4000   405.7039      -1915.3648      22.60222      -1892.7626     -1910.7858      5578.4892      12.54076       21.721234      20.478976    
      4500   382.99979     -1916.8567      21.337348     -1895.5193     -1841.2902      5568.7191      12.533435      21.708546      20.467013    
      5000   396.187       -1914.7551      22.072023     -1892.683      -1279.0438      5587.124       12.547227      21.732435      20.489537    
      5500   414.43124     -1917.4318      23.08843      -1894.3434     -50.817547      5540.7807      12.512439      21.672181      20.432728    
      6000   385.46423     -1916.1917      21.474645     -1894.717      -6585.754       5597.4017      12.554916      21.745753      20.502093    
      6500   418.97446     -1916.4798      23.341538     -1893.1383     -4197.1687      5581.167       12.542767      21.724709      20.482252    
      7000   399.66302     -1916.9521      22.265675     -1894.6864     -28.357988      5556.5854      12.524325      21.692767      20.452137    
      7500   400.22512     -1916.2396      22.296991     -1893.9426      1794.6229      5557.4748      12.524993      21.693925      20.453228    
      8000   366.28329     -1916.0876      20.406054     -1895.6815     -3627.1451      5571.4572      12.535489      21.712103      20.470367    
      8500   389.48275     -1916.6572      21.698521     -1894.9587      1703.1258      5547.3946      12.517416      21.680801      20.440855    
      9000   419.769       -1916.297       23.385802     -1892.9112      980.18597      5569.116       12.533733      21.709062      20.4675      
      9500   409.16705     -1917.6814      22.795156     -1894.8862     -3609.09        5555.4514      12.523473      21.691292      20.450746    
     10000   404.38729     -1919.4188      22.52887      -1896.8899     -3661.8572      5559.108       12.52622       21.69605       20.455232    
     10500   424.53492     -1918.8172      23.651317     -1895.1659      868.53144      5580.2247      12.542061      21.723486      20.481099    
     11000   409.66833     -1920.616       22.823083     -1897.7929     -4001.9822      5567.4678      12.532496      21.70692       20.46548     
     11500   405.14952     -1919.7356      22.571334     -1897.1642      1415.3774      5537.6101      12.510052      21.668046      20.42883     
     12000   407.57819     -1918.9305      22.706638     -1896.2239     -7235.9974      5585.2481      12.545823      21.730003      20.487243    
     12500   408.31827     -1917.9179      22.747869     -1895.17        839.0168       5548.0675      12.517922      21.681677      20.441681    
     13000   410.3245      -1917.7376      22.859639     -1894.878      -4065.1748      5563.8946      12.529814      21.702275      20.461101    
     13500   387.95076     -1919.5752      21.613172     -1897.962      -5463.0094      5565.7667      12.531219      21.704709      20.463396    
     14000   373.11406     -1919.481       20.786603     -1898.6944     -1208.6346      5552.4769      12.521238      21.68742       20.447095    
     14500   366.50546     -1916.845       20.418431     -1896.4265      2673.694       5552.5369      12.521283      21.687498      20.447169    
     15000   352.16737     -1920.0279      19.619639     -1900.4083     -4220.008       5562.717       12.52893       21.700744      20.459657    
     15500   417.97051     -1917.8281      23.285607     -1894.5425     -5486.7507      5575.5937      12.53859       21.717475      20.475432    
     16000   391.74134     -1918.1411      21.82435      -1896.3168      3310.4954      5544.8455      12.515498      21.677479      20.437723    
     16500   385.76589     -1918.5577      21.491451     -1897.0663      9234.5288      5516.8715      12.494416      21.640963      20.403296    
     17000   397.39137     -1918.6693      22.139119     -1896.5302     -782.48186      5545.1692      12.515742      21.677901      20.438121    
     17500   408.87162     -1917.945       22.778697     -1895.1663      1273.7646      5555.7833      12.523722      21.691724      20.451153    
     18000   401.20093     -1919.2711      22.351354     -1896.9197     -2482.7734      5553.1661      12.521756      21.688317      20.447941    
     18500   367.72229     -1918.9445      20.486222     -1898.4583     -834.28787      5548.5526      12.518287      21.682309      20.442277    
     19000   409.43141     -1919.9595      22.809883     -1897.1496      249.04514      5528.8676      12.503465      21.656638      20.418074    
     19500   398.75334     -1917.5816      22.214996     -1895.3666     -1737.1065      5568.2964      12.533118      21.707997      20.466495    
     20000   366.43526     -1918.6376      20.41452      -1898.2231      3851.226       5527.8909      12.502729      21.655362      20.416871    
Loop time of 172.804 on 8 procs for 20000 steps with 432 atoms

Performance: 20.000 ns/day, 1.200 hours/ns, 115.738 timesteps/s, 49.999 katom-step/s
92.5% CPU use with 1 MPI tasks x 8 OpenMP threads

MPI task timing breakdown:
Section |  min time  |  avg time  |  max time  |%varavg| %total
---------------------------------------------------------------
Pair    | 155.61     | 155.61     | 155.61     |   0.0 | 90.05
Neigh   | 0.029991   | 0.029991   | 0.029991   |   0.0 |  0.02
Comm    | 0.13687    | 0.13687    | 0.13687    |   0.0 |  0.08
Output  | 0.00261    | 0.00261    | 0.00261    |   0.0 |  0.00
Modify  | 16.995     | 16.995     | 16.995     |   0.0 |  9.83
Other   |            | 0.02674    |            |       |  0.02

Nlocal:            432 ave         432 max         432 min
Histogram: 1 0 0 0 0 0 0 0 0 0
Nghost:           2626 ave        2626 max        2626 min
Histogram: 1 0 0 0 0 0 0 0 0 0
Neighs:          36069 ave       36069 max       36069 min
Histogram: 1 0 0 0 0 0 0 0 0 0
FullNghs:        72138 ave       72138 max       72138 min
Histogram: 1 0 0 0 0 0 0 0 0 0

Total # of neighbors = 72138
Ave neighs/atom = 166.98611
Neighbor list builds = 35
Dangerous builds = 0
=== STAGE 3: NPT Production at 400 K ===
No /omp style for force computation currently active
Setting up Verlet run ...
  Unit style    : metal
  Current step  : 0
  Time step     : 0.001
Per MPI rank memory allocation (min/avg/max) = 18.66 | 18.66 | 18.66 Mbytes
   Step          Temp          PotEng         KinEng         TotEng         Press          Volume           Lx             Ly             Lz      
         0   366.43526     -1918.6376      20.41452      -1898.2231      3851.226       5527.8909      12.502729      21.655362      20.416871    
       500   399.80069     -1918.5448      22.273345     -1896.2714     -502.35311      5557.6656      12.525137      21.694173      20.453463    
      1000   421.40029     -1918.5292      23.476683     -1895.0525      6774.0352      5535.5739      12.508519      21.66539       20.426326    
      1500   430.48833     -1915.6462      23.982988     -1891.6633      343.11655      5575.3243      12.538388      21.717126      20.475102    
      2000   414.59582     -1917.0156      23.097598     -1893.918       4892.2048      5539.5717      12.511529      21.670604      20.431242    
      2500   379.53752     -1919.0548      21.144461     -1897.9104      742.84775      5553.414       12.521942      21.68864       20.448246    
      3000   396.4702      -1917.8926      22.0878       -1895.8048      2007.9413      5549.9767      12.519358      21.684164      20.444026    
      3500   414.7904      -1918.2819      23.108439     -1895.1735      364.04186      5541.8573      12.51325       21.673584      20.434051    
      4000   400.69417     -1918.3852      22.323122     -1896.0621     -1222.0022      5562.5324      12.528792      21.700504      20.459431    
      4500   399.35955     -1917.3381      22.248769     -1895.0893     -5076.4618      5588.1197      12.547973      21.733726      20.490754    
      5000   365.53798     -1918.674       20.364531     -1898.3094     -500.51709      5543.2816      12.514322      21.675441      20.435802    
      5500   379.41306     -1917.5001      21.137528     -1896.3626      1251.8591      5554.4083      12.522689      21.689934      20.449466    
      6000   418.62315     -1920.2713      23.321965     -1896.9493      255.9442       5530.1382      12.504423      21.658296      20.419638    
      6500   388.76872     -1917.3766      21.658742     -1895.7178     -4233.669       5573.7254      12.53719       21.715049      20.473145    
      7000   389.94485     -1918.846       21.724265     -1897.1218     -4953.5632      5578.4315      12.540717      21.721159      20.478905    
      7500   403.38546     -1917.53        22.473057     -1895.0569     -1768.819       5582.057       12.543433      21.725864      20.483341    
      8000   386.29087     -1921.365       21.520698     -1899.8443      4491.182       5516.168       12.493885      21.640043      20.402428    
      8500   400.06421     -1917.0222      22.288026     -1894.7342      95.445599      5557.3162      12.524874      21.693718      20.453034    
      9000   406.16945     -1919.1216      22.628156     -1896.4935     -1638.2196      5569.7237      12.534188      21.709851      20.468244    
      9500   381.62169     -1917.9168      21.260572     -1896.6562      924.00413      5554.3965      12.52268       21.689919      20.449451    
     10000   387.82788     -1918.084       21.606327     -1896.4777      6099.1608      5512.1298      12.490835      21.634761      20.397449    
     10500   366.85464     -1915.3546      20.437884     -1894.9167      5945.0747      5535.1104      12.50817       21.664785      20.425756    
     11000   393.72295     -1918.22        21.934747     -1896.2853      4536.6453      5537.8306      12.510218      21.668334      20.429101    
     11500   401.06408     -1917.9341      22.34373      -1895.5903      1635.8027      5554.1254      12.522477      21.689566      20.449119    
     12000   409.138       -1915.268       22.793537     -1892.4744     -6887.493       5599.07        12.556164      21.747913      20.504129    
     12500   381.78106     -1917.9611      21.269451     -1896.6917     -530.22929      5561.2252      12.52781       21.698804      20.457828    
     13000   404.56453     -1918.6144      22.538744     -1896.0757      2695.6052      5536.7329      12.509392      21.666902      20.427751    
     13500   415.72788     -1917.6378      23.160667     -1894.4772     -2997.8         5577.059       12.539688      21.719378      20.477226    
     14000   364.66315     -1918.738       20.315794     -1898.4222      4157.9521      5523.9551      12.499761      21.650221      20.412024    
     14500   393.10819     -1919.5631      21.900498     -1897.6626      1625.6745      5531.2837      12.505287      21.659792      20.421047    
     15000   410.83387     -1918.6909      22.888016     -1895.8029     -32.20412       5549.6337      12.5191        21.683717      20.443605    
     15500   373.36317     -1917.2406      20.800481     -1896.4402     -4073.5196      5582.1236      12.543483      21.72595       20.483422    
     16000   391.41729     -1919.8436      21.806297     -1898.0373     -1842.8733      5550.2953      12.519597      21.684579      20.444417    
     16500   376.13241     -1918.3196      20.954759     -1897.3649      2520.3908      5527.8817      12.502722      21.65535       20.41686     
     17000   405.20071     -1918.6125      22.574187     -1896.0383     -2892.5843      5557.5572      12.525055      21.694032      20.453329    
     17500   375.346       -1918.6987      20.910947     -1897.7877      183.28536      5546.1321      12.516466      21.679156      20.439304    
     18000   403.94778     -1920.2228      22.504384     -1897.7184     -3135.6019      5540.0814      12.511913      21.671269      20.431868    
     18500   415.8683      -1918.3248      23.16849      -1895.1563      5783.8357      5525.9035      12.501231      21.652767      20.414424    
     19000   402.36921     -1920.4352      22.41644      -1898.0188      6364.1802      5506.3105      12.486438      21.627145      20.390268    
     19500   411.44062     -1916.0836      22.921819     -1893.1617     -5134.9279      5591.6584      12.550621      21.738313      20.495078    
     20000   372.82529     -1918.3921      20.770515     -1897.6216     -1291.1201      5550.8813      12.520038      21.685342      20.445137    
     20500   398.79889     -1917.9647      22.217534     -1895.7472     -4407.6692      5555.7155      12.523672      21.691635      20.45107     
     21000   422.86491     -1916.2886      23.558279     -1892.7303      7343.2687      5535.0209      12.508102      21.664669      20.425645    
     21500   390.09947     -1917.7173      21.732879     -1895.9844      6880.9631      5516.283       12.493972      21.640194      20.40257     
     22000   385.32493     -1919.2352      21.466885     -1897.7683     -2086.8508      5537.5317      12.509993      21.667944      20.428734    
     22500   388.58587     -1918.9378      21.648555     -1897.2893     -772.57663      5554.4937      12.522753      21.690045      20.449571    
     23000   396.38717     -1916.9324      22.083174     -1894.8492      4147.7755      5528.2618      12.503009      21.655846      20.417328    
     23500   419.30035     -1917.7509      23.359693     -1894.3912      52.06245       5555.2639      12.523332      21.691048      20.450516    
     24000   405.98273     -1917.4251      22.617754     -1894.8073      3015.7637      5534.9417      12.508043      21.664565      20.425548    
     24500   357.48026     -1918.9932      19.915627     -1899.0776      4736.0124      5510.3287      12.489475      21.632405      20.395227    
     25000   398.86832     -1919.9344      22.221402     -1897.713      -2913.1583      5563.2135      12.529303      21.701389      20.460266    
     25500   400.41532     -1919.7154      22.307587     -1897.4078     -915.97021      5555.6436      12.523617      21.691542      20.450982    
     26000   391.0996      -1918.9615      21.788597     -1897.1729      4838.8114      5528.847       12.50345       21.656611      20.418048    
     26500   398.52065     -1918.3164      22.202033     -1896.1144     -3020.2611      5580.4406      12.542222      21.723766      20.481363    
     27000   380.92357     -1920.4578      21.22168      -1899.2361     -4155.9541      5550.6757      12.519883      21.685074      20.444884    
     27500   425.29098     -1919.9395      23.693438     -1896.2461      1112.9854      5515.3263      12.493249      21.638943      20.401391    
     28000   415.36234     -1918.539       23.140302     -1895.3987      433.92787      5529.1857      12.503705      21.657053      20.418465    
     28500   417.68002     -1919.7812      23.269423     -1896.5118      1676.2677      5531.2097      12.505231      21.659695      20.420956    
     29000   409.99923     -1921.7028      22.841517     -1898.8613     -4276.5837      5562.7817      12.528979      21.700828      20.459737    
     29500   404.33807     -1921.4108      22.526128     -1898.8847      560.47747      5518.2412      12.49545       21.642754      20.404984    
     30000   401.04383     -1919.7629      22.342602     -1897.4203      1543.3539      5539.9095      12.511784      21.671045      20.431657    
     30500   377.8         -1920.9845      21.047662     -1899.9369     -2383.2892      5552.9645      12.521604      21.688055      20.447694    
     31000   397.16912     -1920.8017      22.126737     -1898.6749     -2814.0998      5550.107       12.519456      21.684334      20.444186    
     31500   423.71307     -1920.0293      23.605531     -1896.4238     -1183.0906      5533.3131      12.506816      21.66244       20.423544    
     32000   406.9214      -1921.5291      22.670048     -1898.8591     -2318.6332      5524.8246      12.500417      21.651357      20.413095    
     32500   383.85285     -1920.7399      21.384873     -1899.355      -155.82464      5540.2592      12.512047      21.671501      20.432087    
     33000   393.27712     -1919.1066      21.90991      -1897.1967     -148.46496      5529.8569      12.504211      21.657929      20.419291    
     33500   379.44936     -1921.3695      21.13955      -1900.2299      4782.9566      5502.6398      12.483663      21.622338      20.385736    
     34000   376.60266     -1920.5819      20.980957     -1899.601       1744.2527      5535.1442      12.508195      21.664829      20.425797    
     34500   407.15163     -1919.1734      22.682875     -1896.4905      4899.3587      5534.4615      12.507681      21.663939      20.424957    
     35000   411.72573     -1920.6037      22.937702     -1897.666       2508.5068      5530.2509      12.504508      21.658443      20.419776    
     35500   401.76978     -1920.7477      22.383045     -1898.3646     -230.78699      5537.0788      12.509652      21.667353      20.428177    
     36000   392.46508     -1920.7279      21.86467      -1898.8632     -3402.4602      5556.6693      12.524388      21.692877      20.45224     
     36500   401.61331     -1921.7955      22.374328     -1899.4212      2257.9538      5511.7997      12.490586      21.634329      20.397041    
     37000   407.46791     -1920.687       22.700495     -1897.9865      627.93691      5557.2501      12.524825      21.693632      20.452953    
     37500   382.13104     -1919.0578      21.288949     -1897.7688     -4071.4783      5575.5542      12.538561      21.717424      20.475384    
     38000   383.79624     -1920.9806      21.38172      -1899.5989      2207.6888      5532.1823      12.505964      21.660964      20.422153    
     38500   394.31096     -1920.0931      21.967506     -1898.1256      5370.4477      5520.8318      12.497405      21.64614       20.408177    
     39000   394.4399      -1918.8731      21.97469      -1896.8985     -3090.0783      5576.1434      12.539002      21.718189      20.476105    
     39500   390.86903     -1920.1229      21.775753     -1898.3472     -7052.4583      5581.835       12.543267      21.725576      20.483069    
     40000   386.79748     -1917.8994      21.548922     -1896.3505      1678.5936      5540.9155      12.512541      21.672357      20.432894    
     40500   414.01814     -1920.4755      23.065416     -1897.4101      3846.697       5530.6958      12.504843      21.659024      20.420324    
     41000   424.41675     -1921.6218      23.644733     -1897.977      -1061.0565      5551.5557      12.520545      21.68622       20.445965    
     41500   404.1503      -1919.5411      22.515667     -1897.0254     -7013.5812      5575.3054      12.538374      21.717101      20.475079    
     42000   365.61766     -1918.5065      20.36897      -1898.1375     -1077.8991      5560.9312      12.527589      21.698421      20.457468    
     42500   434.99344     -1920.4653      24.233973     -1896.2314      1405.6006      5529.7379      12.504121      21.657774      20.419145    
     43000   418.93036     -1920.618       23.33908      -1897.2789      1997.7188      5546.4431      12.5167        21.679561      20.439686    
     43500   396.00097     -1920.0453      22.061658     -1897.9837      280.10348      5540.0198      12.511867      21.671189      20.431793    
     44000   394.40746     -1921.1446      21.972882     -1899.1717      1332.1821      5522.7369      12.498842      21.64863       20.410524    
     44500   398.49592     -1921.5722      22.200655     -1899.3716     -4801.5809      5550.7367      12.519929      21.685154      20.444959    
     45000   423.03325     -1917.9626      23.567657     -1894.3949     -4373.5863      5582.0107      12.543399      21.725804      20.483284    
     45500   405.16133     -1921.6253      22.571993     -1899.0533      149.02986      5532.3962      12.506125      21.661244      20.422416    
     46000   393.49541     -1920.3397      21.922071     -1898.4176      2022.1886      5540.4271      12.512173      21.67172       20.432293    
     46500   387.917       -1920.2795      21.611291     -1898.6682      4308.4274      5511.1233      12.490075      21.633444      20.396207    
     47000   401.37382     -1920.9071      22.360986     -1898.5461     -219.16319      5553.1248      12.521725      21.688263      20.447891    
     47500   403.55489     -1919.1943      22.482496     -1896.7118      485.64722      5566.5353      12.531796      21.705708      20.464338    
     48000   406.33231     -1920.6926      22.637229     -1898.0553     -1768.0932      5554.8043      12.522987      21.690449      20.449952    
     48500   361.36809     -1921.4652      20.132222     -1901.333       5752.4841      5502.0752      12.483236      21.621599      20.385039    
     49000   388.579       -1921.473       21.648172     -1899.8248      1842.5292      5522.6035      12.498742      21.648456      20.41036     
     49500   406.86911     -1921.0865      22.667135     -1898.4194     -5187.4294      5562.5552      12.528809      21.700533      20.459459    
     50000   408.23873     -1918.9986      22.743438     -1896.2552     -587.67576      5567.3592      12.532415      21.706779      20.465347    
Loop time of 437.981 on 8 procs for 50000 steps with 432 atoms

Performance: 9.863 ns/day, 2.433 hours/ns, 114.160 timesteps/s, 49.317 katom-step/s
92.2% CPU use with 1 MPI tasks x 8 OpenMP threads

MPI task timing breakdown:
Section |  min time  |  avg time  |  max time  |%varavg| %total
---------------------------------------------------------------
Pair    | 393.43     | 393.43     | 393.43     |   0.0 | 89.83
Neigh   | 0.027767   | 0.027767   | 0.027767   |   0.0 |  0.01
Comm    | 0.34225    | 0.34225    | 0.34225    |   0.0 |  0.08
Output  | 0.005237   | 0.005237   | 0.005237   |   0.0 |  0.00
Modify  | 44.116     | 44.116     | 44.116     |   0.0 | 10.07
Other   |            | 0.05842    |            |       |  0.01

Nlocal:            432 ave         432 max         432 min
Histogram: 1 0 0 0 0 0 0 0 0 0
Nghost:           2625 ave        2625 max        2625 min
Histogram: 1 0 0 0 0 0 0 0 0 0
Neighs:          35985 ave       35985 max       35985 min
Histogram: 1 0 0 0 0 0 0 0 0 0
FullNghs:        71970 ave       71970 max       71970 min
Histogram: 1 0 0 0 0 0 0 0 0 0

Total # of neighbors = 71970
Ave neighs/atom = 166.59722
Neighbor list builds = 31
Dangerous builds = 0

=== FINAL RESULTS: DHCP at 400 K ===
Atoms: 432 | PE/atom: -4.44596503525537 eV/atom
WARNING: Detected non-ASCII characters in input. Will try to continue by replacing with ASCII equivalents where known. (src/input.cpp:479)
Volume: 5567.35924400053 …³ | Area: 272.038348048044 ²
==========================================
DHCP 400 432 -4.44596503525537 5567.35924400053 12.5324145124776 21.7067786719946 20.465347198099 272.038348048044
Simulation complete!
Total wall time: 0:10:10
