LAMMPS (10 Sep 2025)
  using 8 OpenMP thread(s) per MPI task
Loaded 1 plugins from C:\Users\harsh\Downloads\LAMMPS 64-bit 10Sep2025\plugins
using multi-threaded neighbor list subroutines
Reading data file ...
  orthogonal box = (0 0 0) to (21.12 21.12 21.12)
  1 by 1 by 1 MPI processor grid
  reading atoms ...
  864 atoms
  read_data CPU = 0.003 seconds
=== STAGE 1: Energy Minimization ===
Switching to 'neigh_modify every 1 delay 0 check yes' setting during minimization
No /omp style for force computation currently active
Neighbor list info ...
  update: every = 1 steps, delay = 0 steps, check = yes
  max neighbors/atom: 4000, page size: 100000
  master list distance cutoff = 8
  ghost atom cutoff = 8
  binsize = 4, bins = 6 6 6
  2 neighbor lists, perpetual/occasional/extra = 2 0 0
  (1) pair meam, perpetual
      attributes: full, newton on, omp
      pair build: full/bin/atomonly/omp
      stencil: full/bin/3d
      bin: standard
  (2) pair meam, perpetual, half/full from (1)
      attributes: half, newton on, omp
      pair build: halffull/newton/omp
      stencil: none
      bin: none
Setting up cg style minimization ...
  Unit style    : metal
  Current step  : 0
Per MPI rank memory allocation (min/avg/max) = 21.5 | 21.5 | 21.5 Mbytes
   Step          Temp          PotEng         KinEng         TotEng         Press          Volume           Lx             Ly             Lz      
         0   0             -3844.7921      0             -3844.7921      2224.7588      9420.6689      21.12          21.12          21.12        
         1   0             -3844.7921      0             -3844.7921      2224.7588      9420.6689      21.12          21.12          21.12        
Loop time of 0.042479 on 8 procs for 1 steps with 864 atoms

73.6% CPU use with 1 MPI tasks x 8 OpenMP threads

Minimization stats:
  Stopping criterion = energy tolerance
  Energy initial, next-to-last, final = 
      -3844.7920817346   -3844.7920817346   -3844.7920817346
  Force two-norm initial, final = 4.268987e-13 4.2035479e-13
  Force max component initial, final = 2.133016e-14 2.2913962e-14
  Final line search alpha, max atom move = 1 2.2913962e-14
  Iterations, force evaluations = 1 2

MPI task timing breakdown:
Section |  min time  |  avg time  |  max time  |%varavg| %total
---------------------------------------------------------------
Pair    | 0.041242   | 0.041242   | 0.041242   |   0.0 | 97.09
Neigh   | 0          | 0          | 0          |   0.0 |  0.00
Comm    | 4.5e-05    | 4.5e-05    | 4.5e-05    |   0.0 |  0.11
Output  | 0          | 0          | 0          |   0.0 |  0.00
Modify  | 0.001069   | 0.001069   | 0.001069   |   0.0 |  2.52
Other   |            | 0.000123   |            |       |  0.29

Nlocal:            864 ave         864 max         864 min
Histogram: 1 0 0 0 0 0 0 0 0 0
Nghost:           3767 ave        3767 max        3767 min
Histogram: 1 0 0 0 0 0 0 0 0 0
Neighs:          86400 ave       86400 max       86400 min
Histogram: 1 0 0 0 0 0 0 0 0 0
FullNghs:       172800 ave      172800 max      172800 min
Histogram: 1 0 0 0 0 0 0 0 0 0

Total # of neighbors = 172800
Ave neighs/atom = 200
Neighbor list builds = 0
Dangerous builds = 0
Minimized PE/atom: -4.44999083534098 eV/atom
=== STAGE 2: NPT Equilibration at 400 K ===
No /omp style for force computation currently active
Setting up Verlet run ...
  Unit style    : metal
  Current step  : 0
  Time step     : 0.002
Per MPI rank memory allocation (min/avg/max) = 20.37 | 20.37 | 20.37 Mbytes
   Step          Temp          PotEng         KinEng         TotEng         Press          Volume           Lx             Ly             Lz      
         0   400           -3844.7921      44.620602     -3800.1715      7283.8532      9420.6689      21.12          21.12          21.12        
       500   402.69536     -3815.628       44.921273     -3770.7067      3940.6996      11078.272      22.292426      22.292426      22.292426    
      1000   373.82225     -3823.4325      41.700435     -3781.732      -1349.1718      11095.072      22.303689      22.303689      22.303689    
      1500   399.97932     -3829.1997      44.618295     -3784.5814     -707.3272       11108.23       22.312503      22.312503      22.312503    
      2000   388.2233      -3827.9652      43.306893     -3784.6583      2076.7686      11113.718      22.316176      22.316176      22.316176    
      2500   373.35265     -3830.2888      41.64805      -3788.6407     -215.83449      11165.82       22.350995      22.350995      22.350995    
      3000   386.24305     -3831.0123      43.085994     -3787.9263     -122.25683      11115.133      22.317123      22.317123      22.317123    
      3500   395.34049     -3834.8709      44.100826     -3790.7701      2941.797       11104.134      22.30976       22.30976       22.30976     
      4000   409.30595     -3833.7788      45.658694     -3788.1201     -149.2565       11103.884      22.309592      22.309592      22.309592    
      4500   413.62544     -3833.0427      46.14054      -3786.9022      2466.7192      11095.284      22.303832      22.303832      22.303832    
      5000   398.24734     -3835.7312      44.42509      -3791.3061      1886.801       11068.336      22.28576       22.28576       22.28576     
      5500   389.18724     -3835.8937      43.414422     -3792.4793      1411.0135      11100.879      22.30758       22.30758       22.30758     
      6000   374.73225     -3836.0965      41.801947     -3794.2945     -14.970959      11090.21       22.300431      22.300431      22.300431    
      6500   405.88507     -3835.6998      45.27709      -3790.4227     -1476.7406      11123.475      22.322705      22.322705      22.322705    
      7000   367.1855      -3835.3388      40.960095     -3794.3787     -729.77944      11104.512      22.310013      22.310013      22.310013    
      7500   402.32223     -3837.7869      44.87965      -3792.9072     -242.29421      11078.737      22.292738      22.292738      22.292738    
      8000   406.23931     -3837.9601      45.316607     -3792.6435      3185.921       11056.606      22.277884      22.277884      22.277884    
      8500   385.29261     -3834.0257      42.979971     -3791.0457     -6492.5866      11165.489      22.350775      22.350775      22.350775    
      9000   391.64237     -3838.6769      43.688296     -3794.9886      771.59804      11080.095      22.293649      22.293649      22.293649    
      9500   394.61292     -3837.8555      44.019665     -3793.8359     -306.69643      11078.441      22.29254       22.29254       22.29254     
     10000   391.42435     -3836.2997      43.663976     -3792.6357      1512.2114      11086.027      22.297627      22.297627      22.297627    
     10500   422.94431     -3839.4544      47.180074     -3792.2744      2437.4945      11070.673      22.287328      22.287328      22.287328    
     11000   407.90729     -3835.7702      45.502672     -3790.2675      59.150152      11112.668      22.315474      22.315474      22.315474    
     11500   415.99957     -3840.4871      46.405378     -3794.0818     -19.057826      11086.139      22.297702      22.297702      22.297702    
     12000   420.47371     -3840.7041      46.904475     -3793.7997     -2244.2764      11085.672      22.297389      22.297389      22.297389    
     12500   408.56479     -3840.1112      45.576017     -3794.5352     -375.86168      11075.562      22.290609      22.290609      22.290609    
     13000   397.89349     -3840.0891      44.385618     -3795.7035      4192.4495      11033.445      22.262318      22.262318      22.262318    
     13500   405.76256     -3838.2732      45.263425     -3793.0098      6010.5858      11044.629      22.269837      22.269837      22.269837    
     14000   411.78608     -3842.3253      45.935357     -3796.3899      1048.6184      11036.172      22.264152      22.264152      22.264152    
     14500   401.98404     -3839.6431      44.841925     -3794.8012     -112.725        11093.641      22.30273       22.30273       22.30273     
     15000   415.65966     -3838.8846      46.36746      -3792.5172     -1304.8965      11094.678      22.303426      22.303426      22.303426    
     15500   389.57408     -3835.7799      43.457575     -3792.3223     -1369.765       11128.988      22.326392      22.326392      22.326392    
     16000   394.8272      -3842.1826      44.043569     -3798.139       793.02784      11068.046      22.285565      22.285565      22.285565    
     16500   386.65619     -3835.2994      43.13208      -3792.1673      5528.6581      11045.004      22.270089      22.270089      22.270089    
     17000   420.43776     -3839.4446      46.900465     -3792.5441      2549.8168      11069.329      22.286426      22.286426      22.286426    
     17500   394.59041     -3839.7938      44.017154     -3795.7767      875.63147      11071.516      22.287894      22.287894      22.287894    
     18000   381.40232     -3840.7825      42.546003     -3798.2365      2099.6413      11046.145      22.270856      22.270856      22.270856    
     18500   400.92108     -3836.4316      44.72335      -3791.7083      3040.2297      11070.097      22.286942      22.286942      22.286942    
     19000   390.379       -3837.6353      43.547365     -3794.088       1355.0082      11070.077      22.286928      22.286928      22.286928    
     19500   402.07363     -3841.0404      44.851919     -3796.1885      399.56266      11092.272      22.301813      22.301813      22.301813    
     20000   407.44264     -3834.3784      45.45084      -3788.9275      3723.3184      11062.966      22.282155      22.282155      22.282155    
Loop time of 578.725 on 8 procs for 20000 steps with 864 atoms

Performance: 5.972 ns/day, 4.019 hours/ns, 34.559 timesteps/s, 29.859 katom-step/s
91.5% CPU use with 1 MPI tasks x 8 OpenMP threads

MPI task timing breakdown:
Section |  min time  |  avg time  |  max time  |%varavg| %total
---------------------------------------------------------------
Pair    | 551        | 551        | 551        |   0.0 | 95.21
Neigh   | 0.11441    | 0.11441    | 0.11441    |   0.0 |  0.02
Comm    | 0.41489    | 0.41489    | 0.41489    |   0.0 |  0.07
Output  | 0.004827   | 0.004827   | 0.004827   |   0.0 |  0.00
Modify  | 27.115     | 27.115     | 27.115     |   0.0 |  4.69
Other   |            | 0.07286    |            |       |  0.01

Nlocal:            864 ave         864 max         864 min
Histogram: 1 0 0 0 0 0 0 0 0 0
Nghost:           3515 ave        3515 max        3515 min
Histogram: 1 0 0 0 0 0 0 0 0 0
Neighs:          72225 ave       72225 max       72225 min
Histogram: 1 0 0 0 0 0 0 0 0 0
FullNghs:       144450 ave      144450 max      144450 min
Histogram: 1 0 0 0 0 0 0 0 0 0

Total # of neighbors = 144450
Ave neighs/atom = 167.1875
Neighbor list builds = 33
Dangerous builds = 0
=== STAGE 3: NPT Production at 400 K ===
No /omp style for force computation currently active
Setting up Verlet run ...
  Unit style    : metal
  Current step  : 0
  Time step     : 0.001
Per MPI rank memory allocation (min/avg/max) = 20.37 | 20.37 | 20.37 Mbytes
   Step          Temp          PotEng         KinEng         TotEng         Press          Volume           Lx             Ly             Lz      
         0   407.44264     -3834.3784      45.45084      -3788.9275      3723.3184      11062.966      22.282155      22.282155      22.282155    
       500   380.91135     -3836.9596      42.491234     -3794.4684     -912.4975       11114.567      22.316745      22.316745      22.316745    
      1000   402.22838     -3833.8672      44.869181     -3788.998       192.1147       11125.956      22.324365      22.324365      22.324365    
      1500   418.4245      -3836.3125      46.675883     -3789.6367      1785.2254      11066.702      22.284663      22.284663      22.284663    
      2000   387.77361     -3836.6217      43.25673      -3793.365      -2417.6648      11101.347      22.307893      22.307893      22.307893    
      2500   396.19237     -3839.1933      44.195855     -3794.9974     -3615.8732      11099.213      22.306464      22.306464      22.306464    
      3000   399.82681     -3838.3676      44.601283     -3793.7663      457.62418      11065.404      22.283792      22.283792      22.283792    
      3500   411.96074     -3837.3595      45.95484      -3791.4047      5534.0702      11038.712      22.26586       22.26586       22.26586     
      4000   391.41084     -3837.4505      43.662468     -3793.788      -230.68536      11098.078      22.305704      22.305704      22.305704    
      4500   369.99941     -3838.3106      41.273991     -3797.0366     -2793.0458      11095.152      22.303743      22.303743      22.303743    
      5000   390.85205     -3836.7723      43.600134     -3793.1722     -3110.4323      11112.554      22.315397      22.315397      22.315397    
      5500   413.38416     -3842.3477      46.113625     -3796.2341     -1845.0689      11079.751      22.293419      22.293419      22.293419    
      6000   410.66884     -3841.3894      45.810727     -3795.5787      2397.1682      11024.184      22.256087      22.256087      22.256087    
      6500   394.59471     -3836.8694      44.017634     -3792.8518     -825.8923       11115.951      22.317671      22.317671      22.317671    
      7000   391.84762     -3840.9152      43.711191     -3797.204       1238.6878      11075.449      22.290533      22.290533      22.290533    
      7500   416.07986     -3841.7747      46.414334     -3795.3604     -1598.4095      11100.887      22.307585      22.307585      22.307585    
      8000   390.90407     -3840.1048      43.605937     -3796.4988      2825.4241      11072.863      22.288798      22.288798      22.288798    
      8500   397.06521     -3840.8159      44.293222     -3796.5226     -721.28169      11097.168      22.305093      22.305093      22.305093    
      9000   395.76308     -3838.3555      44.147967     -3794.2076     -284.94895      11107.147      22.311778      22.311778      22.311778    
      9500   390.91105     -3839.5696      43.606716     -3795.9628      2942.2303      11068.765      22.286047      22.286047      22.286047    
     10000   380.82554     -3841.175       42.481663     -3798.6933      2083.1781      11070.156      22.286981      22.286981      22.286981    
     10500   375.60182     -3839.7709      41.898948     -3797.872      -4264.1196      11130.354      22.327306      22.327306      22.327306    
     11000   390.06571     -3841.3077      43.512417     -3797.7953     -3098.6462      11132.765      22.328918      22.328918      22.328918    
     11500   407.96308     -3841.4675      45.508896     -3795.9586     -707.83687      11095.544      22.304006      22.304006      22.304006    
     12000   402.58926     -3841.0092      44.909438     -3796.0997     -1501.4409      11126.899      22.324995      22.324995      22.324995    
     12500   397.11773     -3840.8115      44.29908      -3796.5124      1873.4424      11069.607      22.286613      22.286613      22.286613    
     13000   391.08663     -3840.6839      43.626302     -3797.0576     -176.54802      11078.932      22.292869      22.292869      22.292869    
     13500   397.88415     -3840.3515      44.384576     -3795.9669      749.01725      11090.646      22.300723      22.300723      22.300723    
     14000   403.86282     -3839.7849      45.051506     -3794.7333      88.188664      11074.373      22.289811      22.289811      22.289811    
     14500   393.97594     -3839.9231      43.948609     -3795.9745     -4544.0397      11115.767      22.317548      22.317548      22.317548    
     15000   398.87587     -3842.7821      44.495204     -3798.2869     -967.34832      11082.935      22.295554      22.295554      22.295554    
     15500   400.1955      -3838.389       44.64241      -3793.7465     -300.5671       11101.399      22.307928      22.307928      22.307928    
     16000   404.91183     -3842.2478      45.168524     -3797.0793      5184.215       11021.165      22.254056      22.254056      22.254056    
     16500   400.40285     -3840.7842      44.665541     -3796.1187      960.22096      11050.826      22.274002      22.274002      22.274002    
     17000   394.53362     -3841.7232      44.010819     -3797.7123     -697.18818      11090.491      22.30062       22.30062       22.30062     
     17500   401.77105     -3839.6825      44.818165     -3794.8643      1328.32        11066.767      22.284707      22.284707      22.284707    
     18000   395.2101      -3839.3411      44.086282     -3795.2548     -2417.5037      11137.528      22.332102      22.332102      22.332102    
     18500   400.42778     -3840.2578      44.668322     -3795.5895     -61.479498      11099.963      22.306966      22.306966      22.306966    
     19000   396.32807     -3842.8546      44.210993     -3798.6436      804.19809      11066.135      22.284282      22.284282      22.284282    
     19500   403.78598     -3841.8034      45.042934     -3796.7605     -564.88164      11080.993      22.294252      22.294252      22.294252    
     20000   406.84441     -3840.675       45.384106     -3795.2909      1044.3805      11084.458      22.296575      22.296575      22.296575    
     20500   413.74978     -3841.5954      46.15441      -3795.441      -3811.4983      11128.298      22.325931      22.325931      22.325931    
     21000   404.03831     -3842.0138      45.071082     -3796.9427      1946.1198      11065.173      22.283636      22.283636      22.283636    
     21500   394.76115     -3841.0562      44.0362       -3797.02        2633.8526      11055.046      22.276837      22.276837      22.276837    
     22000   411.18568     -3841.3809      45.868381     -3795.5125      2366.6343      11057.204      22.278286      22.278286      22.278286    
     22500   415.35886     -3838.5797      46.333906     -3792.2458      3911.6251      11047.419      22.271712      22.271712      22.271712    
     23000   407.48761     -3839.718       45.455856     -3794.2622      685.172        11097.892      22.305579      22.305579      22.305579    
     23500   401.74228     -3841.1979      44.814956     -3796.383      -199.52554      11074.578      22.289949      22.289949      22.289949    
     24000   400.37666     -3839.5055      44.662619     -3794.8429      1281.3029      11087.169      22.298392      22.298392      22.298392    
     24500   401.16265     -3839.7737      44.750298     -3795.0234      2846.5954      11062.793      22.282039      22.282039      22.282039    
     25000   391.68916     -3839.6354      43.693515     -3795.9419      2754.4481      11077.095      22.291637      22.291637      22.291637    
     25500   409.36385     -3839.7738      45.665153     -3794.1086      2588.8905      11077.16       22.291681      22.291681      22.291681    
     26000   389.79199     -3843.3092      43.481883     -3799.8273      422.3761       11046.49       22.271088      22.271088      22.271088    
     26500   381.56309     -3841.2868      42.563937     -3798.7229      339.2306       11068.804      22.286074      22.286074      22.286074    
     27000   405.26984     -3839.8404      45.208461     -3794.632       2610.9299      11060.119      22.280243      22.280243      22.280243    
     27500   395.89646     -3838.6723      44.162846     -3794.5094      480.23732      11083.588      22.295992      22.295992      22.295992    
     28000   393.30328     -3841.2736      43.873573     -3797.4         1102.2847      11061.145      22.280933      22.280933      22.280933    
     28500   390.35533     -3840.934       43.544725     -3797.3893     -2531.5911      11090.897      22.300891      22.300891      22.300891    
     29000   394.90498     -3840.6159      44.052245     -3796.5637      713.41515      11089.569      22.300001      22.300001      22.300001    
     29500   389.07489     -3840.3733      43.40189      -3796.9714     -1533.5798      11115.166      22.317146      22.317146      22.317146    
     30000   401.47727     -3841.4957      44.785393     -3796.7103     -994.1811       11125.688      22.324186      22.324186      22.324186    
     30500   379.30607     -3839.9066      42.312163     -3797.5944      866.77882      11129.129      22.326487      22.326487      22.326487    
     31000   390.46189     -3841.4928      43.556612     -3797.9362      2275.1858      11067.712      22.285341      22.285341      22.285341    
     31500   399.45928     -3838.4838      44.560284     -3793.9235      2546.3169      11085.574      22.297323      22.297323      22.297323    
     32000   393.10573     -3843.5592      43.851535     -3799.7077     -3268.8218      11106.372      22.311259      22.311259      22.311259    
     32500   389.40465     -3840.1167      43.438675     -3796.678       5430.7938      11049.782      22.2733        22.2733        22.2733      
     33000   399.75688     -3840.9033      44.593482     -3796.3098      6122.4267      11050.118      22.273526      22.273526      22.273526    
     33500   402.76734     -3843.0648      44.929303     -3798.1355      1066.7298      11084.923      22.296887      22.296887      22.296887    
     34000   405.83195     -3841.1982      45.271165     -3795.927      -2250.1496      11117.201      22.318508      22.318508      22.318508    
     34500   423.18376     -3843.261       47.206785     -3796.0542     -839.96847      11112.904      22.315632      22.315632      22.315632    
     35000   422.1288      -3841.1106      47.089103     -3794.0215      2286.4278      11078.689      22.292706      22.292706      22.292706    
     35500   394.64365     -3839.5898      44.023094     -3795.5667      2144.831       11110.989      22.31435       22.31435       22.31435     
     36000   401.77435     -3841.9733      44.818534     -3797.1548      794.26046      11083.911      22.296208      22.296208      22.296208    
     36500   408.48538     -3840.9498      45.567159     -3795.3826      1739.4748      11073.286      22.289081      22.289081      22.289081    
     37000   399.45675     -3840.7053      44.560001     -3796.1453      2233.7922      11057.786      22.278677      22.278677      22.278677    
     37500   395.34609     -3844.4457      44.101451     -3800.3443      4349.6269      11015.846      22.250475      22.250475      22.250475    
     38000   389.83454     -3842.2278      43.48663      -3798.7412     -792.92697      11079.043      22.292943      22.292943      22.292943    
     38500   409.08037     -3843.6164      45.633531     -3797.9828     -1255.3219      11038.478      22.265702      22.265702      22.265702    
     39000   408.60883     -3839.6958      45.58093      -3794.1149     -1025.1246      11095.764      22.304153      22.304153      22.304153    
     39500   385.76788     -3838.8637      43.032988     -3795.8307      3837.5117      11055.36       22.277048      22.277048      22.277048    
     40000   400.25626     -3841.0165      44.649188     -3796.3673      3764.6579      11057.197      22.278282      22.278282      22.278282    
     40500   391.86515     -3839.4297      43.713147     -3795.7165      737.43293      11113.668      22.316143      22.316143      22.316143    
     41000   391.76295     -3841.6072      43.701747     -3797.9054     -1272.4557      11090.397      22.300556      22.300556      22.300556    
     41500   399.01548     -3839.4251      44.510777     -3794.9143     -3308.9561      11129.634      22.326825      22.326825      22.326825    
     42000   407.72277     -3838.8956      45.482089     -3793.4135      3891.7393      11064.826      22.283404      22.283404      22.283404    
     42500   395.21572     -3838.0651      44.086909     -3793.9782     -1001.6734      11093.205      22.302438      22.302438      22.302438    
     43000   387.75249     -3839.0149      43.254374     -3795.7605     -365.31872      11091.843      22.301525      22.301525      22.301525    
     43500   397.84544     -3838.4804      44.380258     -3794.1001     -3605.2728      11160.433      22.3474        22.3474        22.3474      
     44000   425.87536     -3840.2569      47.507037     -3792.7499     -4136.7896      11143.487      22.336084      22.336084      22.336084    
     44500   400.09452     -3841.3016      44.631146     -3796.6704      3216.1005      11080.151      22.293686      22.293686      22.293686    
     45000   394.84471     -3839.6637      44.045522     -3795.6182     -1442.6029      11087.22       22.298427      22.298427      22.298427    
     45500   403.83084     -3840.622       45.047938     -3795.574       2326.6372      11061.199      22.280969      22.280969      22.280969    
     46000   407.84072     -3840.4054      45.495246     -3794.9101      436.11703      11108.699      22.312817      22.312817      22.312817    
     46500   399.22431     -3840.6698      44.534073     -3796.1357      1561.7717      11046.687      22.271221      22.271221      22.271221    
     47000   389.20061     -3840.6444      43.415914     -3797.2285      2600.8876      11039.068      22.266099      22.266099      22.266099    
     47500   409.42663     -3842.0539      45.672157     -3796.3818      4265.1824      11023.019      22.255303      22.255303      22.255303    
     48000   410.17274     -3841.535       45.755387     -3795.7797     -337.28679      11077.61       22.291982      22.291982      22.291982    
     48500   416.59344     -3837.9658      46.471625     -3791.4942      3229.352       11028.145      22.258753      22.258753      22.258753    
     49000   411.10462     -3843.2233      45.85934      -3797.3639     -1939.5128      11085.67       22.297387      22.297387      22.297387    
     49500   403.64574     -3841.0858      45.02729      -3796.0585     -2983.8171      11102.47       22.308646      22.308646      22.308646    
     50000   414.04555     -3839.2214      46.187404     -3793.034      -2474.0582      11132.249      22.328573      22.328573      22.328573    
Loop time of 858.562 on 8 procs for 50000 steps with 864 atoms

Performance: 5.032 ns/day, 4.770 hours/ns, 58.237 timesteps/s, 50.317 katom-step/s
93.9% CPU use with 1 MPI tasks x 8 OpenMP threads

MPI task timing breakdown:
Section |  min time  |  avg time  |  max time  |%varavg| %total
---------------------------------------------------------------
Pair    | 806.33     | 806.33     | 806.33     |   0.0 | 93.92
Neigh   | 0.062742   | 0.062742   | 0.062742   |   0.0 |  0.01
Comm    | 0.5283     | 0.5283     | 0.5283     |   0.0 |  0.06
Output  | 0.005827   | 0.005827   | 0.005827   |   0.0 |  0.00
Modify  | 51.522     | 51.522     | 51.522     |   0.0 |  6.00
Other   |            | 0.1146     |            |       |  0.01

Nlocal:            864 ave         864 max         864 min
Histogram: 1 0 0 0 0 0 0 0 0 0
Nghost:           3518 ave        3518 max        3518 min
Histogram: 1 0 0 0 0 0 0 0 0 0
Neighs:          72048 ave       72048 max       72048 min
Histogram: 1 0 0 0 0 0 0 0 0 0
FullNghs:       144096 ave      144096 max      144096 min
Histogram: 1 0 0 0 0 0 0 0 0 0

Total # of neighbors = 144096
Ave neighs/atom = 166.77778
Neighbor list builds = 35
Dangerous builds = 0

=== FINAL RESULTS: FCC at 400 K ===
Atoms: 864 | PE/atom: -4.44502743765169 eV/atom
WARNING: Detected non-ASCII characters in input. Will try to continue by replacing with ASCII equivalents where known. (src/input.cpp:479)
Volume: 11132.2490052444 …³ | Area: 498.565177057793 ²
==========================================
FCC 400 864 -4.44502743765169 11132.2490052444 22.3285731084141 22.3285731084141 22.3285731084141 498.565177057793
Simulation complete!
Total wall time: 0:23:57
