LAMMPS (10 Sep 2025)
  using 8 OpenMP thread(s) per MPI task
Loaded 1 plugins from C:\Users\harsh\Downloads\LAMMPS 64-bit 10Sep2025\plugins
using multi-threaded neighbor list subroutines
Reading data file ...
  orthogonal box = (0 0 0) to (21.12 21.12 21.12)
  1 by 1 by 1 MPI processor grid
  reading atoms ...
  864 atoms
  read_data CPU = 0.004 seconds
=== STAGE 1: Energy Minimization ===
Switching to 'neigh_modify every 1 delay 0 check yes' setting during minimization
No /omp style for force computation currently active
Neighbor list info ...
  update: every = 1 steps, delay = 0 steps, check = yes
  max neighbors/atom: 4000, page size: 100000
  master list distance cutoff = 8
  ghost atom cutoff = 8
  binsize = 4, bins = 6 6 6
  2 neighbor lists, perpetual/occasional/extra = 2 0 0
  (1) pair meam, perpetual
      attributes: full, newton on, omp
      pair build: full/bin/atomonly/omp
      stencil: full/bin/3d
      bin: standard
  (2) pair meam, perpetual, half/full from (1)
      attributes: half, newton on, omp
      pair build: halffull/newton/omp
      stencil: none
      bin: none
Setting up cg style minimization ...
  Unit style    : metal
  Current step  : 0
Per MPI rank memory allocation (min/avg/max) = 21.5 | 21.5 | 21.5 Mbytes
   Step          Temp          PotEng         KinEng         TotEng         Press          Volume           Lx             Ly             Lz      
         0   0             -3844.7921      0             -3844.7921      2224.7588      9420.6689      21.12          21.12          21.12        
         1   0             -3844.7921      0             -3844.7921      2224.7588      9420.6689      21.12          21.12          21.12        
Loop time of 0.044621 on 8 procs for 1 steps with 864 atoms

70.0% CPU use with 1 MPI tasks x 8 OpenMP threads

Minimization stats:
  Stopping criterion = energy tolerance
  Energy initial, next-to-last, final = 
      -3844.7920817346   -3844.7920817346   -3844.7920817346
  Force two-norm initial, final = 4.268987e-13 4.2035479e-13
  Force max component initial, final = 2.133016e-14 2.2913962e-14
  Final line search alpha, max atom move = 1 2.2913962e-14
  Iterations, force evaluations = 1 2

MPI task timing breakdown:
Section |  min time  |  avg time  |  max time  |%varavg| %total
---------------------------------------------------------------
Pair    | 0.043549   | 0.043549   | 0.043549   |   0.0 | 97.60
Neigh   | 0          | 0          | 0          |   0.0 |  0.00
Comm    | 3.9e-05    | 3.9e-05    | 3.9e-05    |   0.0 |  0.09
Output  | 0          | 0          | 0          |   0.0 |  0.00
Modify  | 0.000921   | 0.000921   | 0.000921   |   0.0 |  2.06
Other   |            | 0.000112   |            |       |  0.25

Nlocal:            864 ave         864 max         864 min
Histogram: 1 0 0 0 0 0 0 0 0 0
Nghost:           3767 ave        3767 max        3767 min
Histogram: 1 0 0 0 0 0 0 0 0 0
Neighs:          86400 ave       86400 max       86400 min
Histogram: 1 0 0 0 0 0 0 0 0 0
FullNghs:       172800 ave      172800 max      172800 min
Histogram: 1 0 0 0 0 0 0 0 0 0

Total # of neighbors = 172800
Ave neighs/atom = 200
Neighbor list builds = 0
Dangerous builds = 0
Minimized PE/atom: -4.44999083534098 eV/atom
=== STAGE 2: NPT Equilibration at 200 K ===
No /omp style for force computation currently active
Setting up Verlet run ...
  Unit style    : metal
  Current step  : 0
  Time step     : 0.002
Per MPI rank memory allocation (min/avg/max) = 20.37 | 20.37 | 20.37 Mbytes
   Step          Temp          PotEng         KinEng         TotEng         Press          Volume           Lx             Ly             Lz      
         0   200           -3844.7921      22.310301     -3822.4818      4754.306       9420.6689      21.12          21.12          21.12        
       500   231.11043     -3832.9724      25.780716     -3807.1917     -577.79492      10677.487      22.020289      22.020289      22.020289    
      1000   197.48172     -3852.1203      22.029383     -3830.0909     -2717.7574      10920.443      22.186055      22.186055      22.186055    
      1500   200.3362      -3855.5787      22.347805     -3833.2309      1322.6657      10889.919      22.165365      22.165365      22.165365    
      2000   201.06735     -3859.3326      22.429365     -3836.9033      1071.6643      10876.86       22.156501      22.156501      22.156501    
      2500   192.54259     -3860.9847      21.478415     -3839.5063      705.09271      10889.115      22.164819      22.164819      22.164819    
      3000   201.74522     -3860.7643      22.504984     -3838.2593      1137.0497      10896.587      22.169888      22.169888      22.169888    
      3500   205.1001      -3861.7517      22.879225     -3838.8724      808.05755      10896.739      22.169991      22.169991      22.169991    
      4000   192.21447     -3862.8497      21.441813     -3841.4079     -3298.9866      10942.433      22.200937      22.200937      22.200937    
      4500   196.44205     -3862.8004      21.913406     -3840.887       2314.5189      10892.464      22.167091      22.167091      22.167091    
      5000   199.99917     -3864.1705      22.310208     -3841.8603     -1124.9619      10910.277      22.179169      22.179169      22.179169    
      5500   193.73871     -3865.4385      21.611845     -3843.8267      3864.0167      10854.636      22.141401      22.141401      22.141401    
      6000   204.88306     -3865.3873      22.855014     -3842.5323     -337.8865       10880.023      22.158649      22.158649      22.158649    
      6500   212.22511     -3866.147       23.674031     -3842.4729     -1591.534       10899.105      22.171596      22.171596      22.171596    
      7000   201.89457     -3864.4214      22.521643     -3841.8997      1299.8238      10891.698      22.166572      22.166572      22.166572    
      7500   205.1131      -3867.4005      22.880675     -3844.5198      696.10802      10867.467      22.150121      22.150121      22.150121    
      8000   197.19255     -3866.077       21.997126     -3844.0799      997.23339      10882.346      22.160225      22.160225      22.160225    
      8500   195.60241     -3867.7209      21.819743     -3845.9011     -870.42583      10891.406      22.166374      22.166374      22.166374    
      9000   201.44187     -3868.2136      22.471144     -3845.7425      1.7286516      10895.702      22.169288      22.169288      22.169288    
      9500   208.69478     -3866.4095      23.280217     -3843.1293      2363.9645      10873.349      22.154117      22.154117      22.154117    
     10000   203.07512     -3867.7091      22.653336     -3845.0558      3779.7928      10862.288      22.146602      22.146602      22.146602    
     10500   196.28356     -3867.8323      21.895727     -3845.9365     -1311.046       10901.28       22.17307       22.17307       22.17307     
     11000   195.70997     -3869.0426      21.831742     -3847.2108     -1752.0659      10904.226      22.175067      22.175067      22.175067    
     11500   196.13128     -3869.1233      21.878739     -3847.2445      911.72692      10885.4        22.162299      22.162299      22.162299    
     12000   204.33886     -3868.1907      22.794308     -3845.3964      290.66119      10886.104      22.162776      22.162776      22.162776    
     12500   208.15557     -3868.0432      23.220067     -3844.8232      2364.9773      10869.246      22.15133       22.15133       22.15133     
     13000   200.76009     -3868.8761      22.39509      -3846.481       1817.9854      10883.585      22.161067      22.161067      22.161067    
     13500   193.72616     -3869.3624      21.610444     -3847.7519     -75.049855      10884.874      22.161941      22.161941      22.161941    
     14000   202.17627     -3870.1221      22.553068     -3847.569       2577.4792      10860.497      22.145385      22.145385      22.145385    
     14500   197.48353     -3868.378       22.029585     -3846.3485      259.91768      10866.49       22.149458      22.149458      22.149458    
     15000   188.84204     -3870.2563      21.065614     -3849.1907     -714.64173      10899.909      22.172141      22.172141      22.172141    
     15500   204.40525     -3870.6915      22.801713     -3847.8897     -1252.4385      10890.363      22.165666      22.165666      22.165666    
     16000   198.77765     -3869.1261      22.173946     -3846.9522      1502.5435      10882.483      22.160318      22.160318      22.160318    
     16500   186.11259     -3869.8494      20.76114      -3849.0883      1546.1432      10871.315      22.152735      22.152735      22.152735    
     17000   197.84081     -3870.9682      22.06944      -3848.8988      2469.2047      10849.4        22.137839      22.137839      22.137839    
     17500   200.41863     -3870.8115      22.357        -3848.4545      1494.4809      10879.924      22.158581      22.158581      22.158581    
     18000   202.86732     -3870.0108      22.630155     -3847.3806      525.26096      10868.27       22.150667      22.150667      22.150667    
     18500   198.27264     -3871.4489      22.117611     -3849.3313     -824.22604      10883.204      22.160808      22.160808      22.160808    
     19000   188.37008     -3870.8961      21.012966     -3849.8831      1328.2742      10871.221      22.152671      22.152671      22.152671    
     19500   199.36458     -3870.0762      22.239419     -3847.8368      2137.3912      10865.07       22.148493      22.148493      22.148493    
     20000   200.48719     -3870.7799      22.364648     -3848.4153     -957.07776      10893.013      22.167464      22.167464      22.167464    
Loop time of 342.037 on 8 procs for 20000 steps with 864 atoms

Performance: 10.104 ns/day, 2.375 hours/ns, 58.473 timesteps/s, 50.521 katom-step/s
95.0% CPU use with 1 MPI tasks x 8 OpenMP threads

MPI task timing breakdown:
Section |  min time  |  avg time  |  max time  |%varavg| %total
---------------------------------------------------------------
Pair    | 321.96     | 321.96     | 321.96     |   0.0 | 94.13
Neigh   | 0.017583   | 0.017583   | 0.017583   |   0.0 |  0.01
Comm    | 0.20154    | 0.20154    | 0.20154    |   0.0 |  0.06
Output  | 0.002354   | 0.002354   | 0.002354   |   0.0 |  0.00
Modify  | 19.811     | 19.811     | 19.811     |   0.0 |  5.79
Other   |            | 0.04132    |            |       |  0.01

Nlocal:            864 ave         864 max         864 min
Histogram: 1 0 0 0 0 0 0 0 0 0
Nghost:           3547 ave        3547 max        3547 min
Histogram: 1 0 0 0 0 0 0 0 0 0
Neighs:          73600 ave       73600 max       73600 min
Histogram: 1 0 0 0 0 0 0 0 0 0
FullNghs:       147200 ave      147200 max      147200 min
Histogram: 1 0 0 0 0 0 0 0 0 0

Total # of neighbors = 147200
Ave neighs/atom = 170.37037
Neighbor list builds = 10
Dangerous builds = 0
=== STAGE 3: NPT Production at 200 K ===
No /omp style for force computation currently active
Setting up Verlet run ...
  Unit style    : metal
  Current step  : 0
  Time step     : 0.001
Per MPI rank memory allocation (min/avg/max) = 20.37 | 20.37 | 20.37 Mbytes
   Step          Temp          PotEng         KinEng         TotEng         Press          Volume           Lx             Ly             Lz      
         0   200.48719     -3870.7799      22.364648     -3848.4153     -957.07776      10893.013      22.167464      22.167464      22.167464    
       500   195.25009     -3871.3178      21.780442     -3849.5373     -1834.3392      10895.883      22.16941       22.16941       22.16941     
      1000   196.64812     -3871.9922      21.936394     -3850.0558      810.86703      10854.178      22.141089      22.141089      22.141089    
      1500   197.4212      -3871.1324      22.022632     -3849.1097     -119.32672      10860.888      22.14565       22.14565       22.14565     
      2000   201.22417     -3870.7466      22.446859     -3848.2997      2394.2459      10851.136      22.139021      22.139021      22.139021    
      2500   195.25957     -3870.71        21.781498     -3848.9285     -387.45231      10871.788      22.153057      22.153057      22.153057    
      3000   195.15259     -3871.5137      21.769565     -3849.7441     -3626.2052      10894.91       22.168751      22.168751      22.168751    
      3500   190.90712     -3871.7978      21.295977     -3850.5018     -3072.345       10895.438      22.169108      22.169108      22.169108    
      4000   194.4667      -3871.0294      21.693053     -3849.3363      1301.165       10854.373      22.141222      22.141222      22.141222    
      4500   197.47359     -3870.548       22.028476     -3848.5195     -2602.177       10899.423      22.171811      22.171811      22.171811    
      5000   201.37797     -3870.3103      22.464016     -3847.8463     -326.50994      10872.461      22.153514      22.153514      22.153514    
      5500   209.24614     -3870.0841      23.341722     -3846.7424      1078.3538      10866.799      22.149667      22.149667      22.149667    
      6000   205.01074     -3871.8509      22.869256     -3848.9817      14.327701      10854.414      22.14125       22.14125       22.14125     
      6500   205.87565     -3871.2324      22.965739     -3848.2667      1060.9785      10874.842      22.155131      22.155131      22.155131    
      7000   196.3523      -3871.4862      21.903395     -3849.5829      2351.7778      10858.315      22.143902      22.143902      22.143902    
      7500   194.92852     -3871.8741      21.744569     -3850.1295      871.69925      10865.238      22.148607      22.148607      22.148607    
      8000   195.25877     -3871.6691      21.78141      -3849.8877      1585.0937      10860.726      22.145541      22.145541      22.145541    
      8500   198.99413     -3871.1913      22.198095     -3848.9932     -694.01614      10869.21       22.151306      22.151306      22.151306    
      9000   200.86455     -3870.9897      22.406743     -3848.5829      2523.7846      10868.639      22.150917      22.150917      22.150917    
      9500   206.42567     -3870.988       23.027094     -3847.961       1667.7549      10855.661      22.142098      22.142098      22.142098    
     10000   203.26373     -3869.7595      22.674375     -3847.0852     -2596.2019      10916.366      22.183294      22.183294      22.183294    
     10500   189.46376     -3870.9016      21.134967     -3849.7666     -1607.5761      10905.766      22.176111      22.176111      22.176111    
     11000   198.54691     -3870.7836      22.148207     -3848.6354     -2861.8145      10908.032      22.177647      22.177647      22.177647    
     11500   202.00792     -3872.1778      22.534288     -3849.6435     -3234.2056      10902.796      22.174098      22.174098      22.174098    
     12000   190.86274     -3872.0095      21.291026     -3850.7185      3019.1124      10834.98       22.128028      22.128028      22.128028    
     12500   191.69651     -3872.5561      21.384034     -3851.1721      2886.0463      10827.008      22.122599      22.122599      22.122599    
     13000   198.16796     -3871.7629      22.105935     -3849.657       1287.9316      10860.998      22.145725      22.145725      22.145725    
     13500   201.01483     -3871.244       22.423507     -3848.8205     -3920.0933      10917.713      22.184206      22.184206      22.184206    
     14000   198.95849     -3870.369       22.194119     -3848.1749     -1130.4699      10877.147      22.156696      22.156696      22.156696    
     14500   198.92961     -3872.2787      22.190897     -3850.0878      1046.7109      10863.431      22.147379      22.147379      22.147379    
     15000   189.63625     -3872.7895      21.15421      -3851.6353     -572.85846      10883.285      22.160863      22.160863      22.160863    
     15500   205.01742     -3872.2008      22.870001     -3849.3308     -272.26682      10867.864      22.150391      22.150391      22.150391    
     16000   201.90572     -3871.9212      22.522887     -3849.3983      4610.434       10836.458      22.129034      22.129034      22.129034    
     16500   198.89778     -3871.893       22.187346     -3849.7056      1940.3859      10857.456      22.143318      22.143318      22.143318    
     17000   211.73806     -3870.5361      23.619699     -3846.9164      104.86465      10880.665      22.159084      22.159084      22.159084    
     17500   193.5777      -3871.4528      21.593884     -3849.8589     -291.82632      10885.735      22.162526      22.162526      22.162526    
     18000   199.25262     -3872.2329      22.226929     -3850.006      -157.55817      10866.712      22.149609      22.149609      22.149609    
     18500   198.88621     -3871.5674      22.186056     -3849.3813      50.664588      10888.615      22.16448       22.16448       22.16448     
     19000   200.605       -3870.1568      22.37779      -3847.779      -461.06286      10887.867      22.163973      22.163973      22.163973    
     19500   200.65305     -3872.7448      22.383149     -3850.3617      748.86322      10857.589      22.143408      22.143408      22.143408    
     20000   200.32178     -3871.5434      22.346196     -3849.1972     -80.263372      10887.321      22.163602      22.163602      22.163602    
     20500   203.4303      -3869.9399      22.692956     -3847.247      -5329.6075      10925.545      22.18951       22.18951       22.18951     
     21000   190.45788     -3871.6921      21.245863     -3850.4462     -4498.7286      10907.807      22.177494      22.177494      22.177494    
     21500   198.74119     -3871.2185      22.169879     -3849.0486     -1309.4895      10895.759      22.169326      22.169326      22.169326    
     22000   198.86761     -3871.7174      22.183981     -3849.5334     -18.401655      10882.804      22.160536      22.160536      22.160536    
     22500   188.06376     -3872.2117      20.978796     -3851.2329     -1595.4476      10883.255      22.160843      22.160843      22.160843    
     23000   206.81033     -3873.5912      23.070004     -3850.5212      2882.0602      10829.976      22.124621      22.124621      22.124621    
     23500   196.96253     -3871.3973      21.971467     -3849.4258     -614.9706       10875.683      22.155702      22.155702      22.155702    
     24000   198.21097     -3872.0665      22.110733     -3849.9558     -372.33198      10884.321      22.161566      22.161566      22.161566    
     24500   198.73841     -3872.7691      22.169569     -3850.5996     -511.61596      10873.17       22.153995      22.153995      22.153995    
     25000   197.25209     -3871.7206      22.003767     -3849.7168      1632.8167      10860.42       22.145332      22.145332      22.145332    
     25500   192.84614     -3871.6462      21.512277     -3850.1339      951.92012      10864.362      22.148012      22.148012      22.148012    
     26000   197.71546     -3873.3704      22.055457     -3851.315       264.16988      10857.296      22.143209      22.143209      22.143209    
     26500   208.3407      -3871.8935      23.240718     -3848.6528     -2045.1192      10885.342      22.162259      22.162259      22.162259    
     27000   201.71962     -3872.1259      22.502127     -3849.6237     -245.53242      10880.578      22.159025      22.159025      22.159025    
     27500   203.43252     -3872.309       22.693203     -3849.6158      1461.2369      10866.581      22.14952       22.14952       22.14952     
     28000   201.54174     -3870.9694      22.482284     -3848.4871      1524.0354      10862.249      22.146575      22.146575      22.146575    
     28500   203.14885     -3872.0612      22.66156      -3849.3996     -2030.4013      10901.722      22.17337       22.17337       22.17337     
     29000   196.71134     -3871.2147      21.943447     -3849.2712     -1887.3724      10909.819      22.178858      22.178858      22.178858    
     29500   199.44088     -3871.791       22.247931     -3849.5431      1451.7481      10869.744      22.151669      22.151669      22.151669    
     30000   197.57111     -3872.3522      22.039354     -3850.3128      1980.0606      10881.653      22.159755      22.159755      22.159755    
     30500   201.47029     -3873.2294      22.474314     -3850.7551     -2863.5828      10893.23       22.167611      22.167611      22.167611    
     31000   202.01027     -3872.5453      22.534549     -3850.0108     -565.87091      10882.312      22.160203      22.160203      22.160203    
     31500   200.13344     -3871.9846      22.325186     -3849.6594      675.62886      10853.191      22.140418      22.140418      22.140418    
     32000   212.04456     -3872.0234      23.65389      -3848.3696      2488.3447      10870.784      22.152375      22.152375      22.152375    
     32500   199.09301     -3872.0042      22.209125     -3849.7951     -1204.2029      10887.811      22.163935      22.163935      22.163935    
     33000   193.52458     -3872.1425      21.587958     -3850.5545     -2805.7675      10890.719      22.165907      22.165907      22.165907    
     33500   197.52693     -3870.7668      22.034427     -3848.7324     -2855.6056      10911.162      22.179768      22.179768      22.179768    
     34000   199.65163     -3871.5936      22.27144      -3849.3222      466.94037      10878.039      22.157302      22.157302      22.157302    
     34500   195.47129     -3871.8458      21.805116     -3850.0407      1653.5455      10858.784      22.144221      22.144221      22.144221    
     35000   198.38706     -3873.4212      22.130376     -3851.2908     -166.47933      10874.158      22.154666      22.154666      22.154666    
     35500   196.15312     -3872.4979      21.881176     -3850.6167     -2537.5097      10893.498      22.167792      22.167792      22.167792    
     36000   195.63928     -3872.3847      21.823856     -3850.5608     -1322.4602      10882.109      22.160065      22.160065      22.160065    
     36500   196.96813     -3872.192       21.972092     -3850.2199     -1225.1093      10888.415      22.164345      22.164345      22.164345    
     37000   196.90634     -3871.9575      21.965199     -3849.9923      362.94799      10864.145      22.147864      22.147864      22.147864    
     37500   202.72353     -3872.7775      22.614115     -3850.1634      145.45996      10871.315      22.152735      22.152735      22.152735    
     38000   200.76822     -3871.299       22.395997     -3848.903       4001.0107      10827.043      22.122623      22.122623      22.122623    
     38500   201.38359     -3872.1239      22.464643     -3849.6593     -1652.0665      10901.789      22.173415      22.173415      22.173415    
     39000   202.07597     -3873.0784      22.541879     -3850.5366     -2670.4479      10900.373      22.172455      22.172455      22.172455    
     39500   194.33951     -3872.5801      21.678864     -3850.9012     -186.8017       10860.572      22.145436      22.145436      22.145436    
     40000   195.32064     -3870.9578      21.788312     -3849.1695      3420.7291      10855.368      22.141898      22.141898      22.141898    
     40500   202.46901     -3872.1229      22.585722     -3849.5372      1782.2466      10859.945      22.14501       22.14501       22.14501     
     41000   199.85026     -3871.2679      22.293597     -3848.9743      38.271239      10885.035      22.162051      22.162051      22.162051    
     41500   192.38955     -3870.9538      21.461344     -3849.4924     -252.73507      10903.497      22.174573      22.174573      22.174573    
     42000   193.26194     -3872.5468      21.55866      -3850.9881      1252.0705      10865.872      22.149038      22.149038      22.149038    
     42500   196.07451     -3872.1404      21.872407     -3850.268       4757.2756      10835.876      22.128638      22.128638      22.128638    
     43000   200.97845     -3872.1422      22.419448     -3849.7228      2012.7442      10852.262      22.139786      22.139786      22.139786    
     43500   197.8449      -3871.1125      22.069896     -3849.0426     -698.30338      10876.702      22.156394      22.156394      22.156394    
     44000   202.89857     -3872.7031      22.633641     -3850.0694     -1968.4593      10899.53       22.171884      22.171884      22.171884    
     44500   191.37926     -3872.0089      21.348645     -3850.6602     -1047.2869      10863.756      22.1476        22.1476        22.1476      
     45000   200.86653     -3871.8984      22.406964     -3849.4915     -173.00442      10871.646      22.15296       22.15296       22.15296     
     45500   205.82128     -3872.1336      22.959673     -3849.1739      3477.7523      10846.063      22.13557       22.13557       22.13557     
     46000   203.32034     -3873.0435      22.68069      -3850.3628      484.36377      10840.771      22.131969      22.131969      22.131969    
     46500   189.94299     -3872.5213      21.188427     -3851.3328     -1239.2447      10895.396      22.16908       22.16908       22.16908     
     47000   208.71383     -3871.174       23.282342     -3847.8916      195.80438      10871.634      22.152952      22.152952      22.152952    
     47500   204.37672     -3871.6435      22.798531     -3848.845       91.566674      10878.423      22.157563      22.157563      22.157563    
     48000   201.17769     -3871.7716      22.441674     -3849.3299     -76.038762      10864.886      22.148368      22.148368      22.148368    
     48500   196.62303     -3871.4304      21.933594     -3849.4968     -2755.6223      10899.443      22.171825      22.171825      22.171825    
     49000   207.33992     -3871.4591      23.12908      -3848.33        2070.1729      10849.715      22.138054      22.138054      22.138054    
     49500   202.97571     -3871.9667      22.642246     -3849.3245      1409.0185      10870.588      22.152242      22.152242      22.152242    
     50000   200.62904     -3871.9057      22.380471     -3849.5252     -162.0678       10876.95       22.156562      22.156562      22.156562    
Loop time of 842.484 on 8 procs for 50000 steps with 864 atoms

Performance: 5.128 ns/day, 4.680 hours/ns, 59.348 timesteps/s, 51.277 katom-step/s
95.5% CPU use with 1 MPI tasks x 8 OpenMP threads

MPI task timing breakdown:
Section |  min time  |  avg time  |  max time  |%varavg| %total
---------------------------------------------------------------
Pair    | 797.01     | 797.01     | 797.01     |   0.0 | 94.60
Neigh   | 0.001788   | 0.001788   | 0.001788   |   0.0 |  0.00
Comm    | 0.48916    | 0.48916    | 0.48916    |   0.0 |  0.06
Output  | 0.005532   | 0.005532   | 0.005532   |   0.0 |  0.00
Modify  | 44.884     | 44.884     | 44.884     |   0.0 |  5.33
Other   |            | 0.09709    |            |       |  0.01

Nlocal:            864 ave         864 max         864 min
Histogram: 1 0 0 0 0 0 0 0 0 0
Nghost:           3556 ave        3556 max        3556 min
Histogram: 1 0 0 0 0 0 0 0 0 0
Neighs:          73739 ave       73739 max       73739 min
Histogram: 1 0 0 0 0 0 0 0 0 0
FullNghs:       147478 ave      147478 max      147478 min
Histogram: 1 0 0 0 0 0 0 0 0 0

Total # of neighbors = 147478
Ave neighs/atom = 170.69213
Neighbor list builds = 1
Dangerous builds = 0

=== FINAL RESULTS: FCC at 200 K ===
Atoms: 864 | PE/atom: -4.48142834564056 eV/atom
WARNING: Detected non-ASCII characters in input. Will try to continue by replacing with ASCII equivalents where known. (src/input.cpp:479)
Volume: 10876.9501796946 …³ | Area: 490.913256165127 ²
==========================================
FCC 200 864 -4.48142834564056 10876.9501796946 22.1565623724694 22.1565623724694 22.1565623724694 490.913256165127
Simulation complete!
Total wall time: 0:19:44
