# DHCP structure - OPTIMIZED (smaller supercell)
# Composition: {'Al': 0.0, 'Fe': 0.0, 'Ni': 1.0}
# Generated for Assignment 2 - MM309 (Optimized)

432 atoms
3 atom types

0.0 14.93409522 xlo xhi
0.0 25.86661168 ylo yhi
0.0 24.38727537 zlo zhi

Masses

1 26.9815  # Al
2 55.8450  # Fe
3 58.6934  # Ni

Atoms # atomic

1 3 0.00000000 0.00000000 0.00000000
2 3 0.00000000 4.31110195 0.00000000
3 3 0.00000000 8.62220389 0.00000000
4 3 0.00000000 12.93330584 0.00000000
5 3 0.00000000 17.24440779 0.00000000
6 3 0.00000000 21.55550974 0.00000000
7 3 2.48901587 0.00000000 0.00000000
8 3 2.48901587 4.31110195 0.00000000
9 3 2.48901587 8.62220389 0.00000000
10 3 2.48901587 12.93330584 0.00000000
11 3 2.48901587 17.24440779 0.00000000
12 3 2.48901587 21.55550974 0.00000000
13 3 4.97803174 0.00000000 0.00000000
14 3 4.97803174 4.31110195 0.00000000
15 3 4.97803174 8.62220389 0.00000000
16 3 4.97803174 12.93330584 0.00000000
17 3 4.97803174 17.24440779 0.00000000
18 3 4.97803174 21.55550974 0.00000000
19 3 7.46704761 0.00000000 0.00000000
20 3 7.46704761 4.31110195 0.00000000
21 3 7.46704761 8.62220389 0.00000000
22 3 7.46704761 12.93330584 0.00000000
23 3 7.46704761 17.24440779 0.00000000
24 3 7.46704761 21.55550974 0.00000000
25 3 9.95606348 0.00000000 0.00000000
26 3 9.95606348 4.31110195 0.00000000
27 3 9.95606348 8.62220389 0.00000000
28 3 9.95606348 12.93330584 0.00000000
29 3 9.95606348 17.24440779 0.00000000
30 3 9.95606348 21.55550974 0.00000000
31 3 12.44507935 0.00000000 0.00000000
32 3 12.44507935 4.31110195 0.00000000
33 3 12.44507935 8.62220389 0.00000000
34 3 12.44507935 12.93330584 0.00000000
35 3 12.44507935 17.24440779 0.00000000
36 3 12.44507935 21.55550974 0.00000000
37 3 1.24450793 2.15555097 2.03227295
38 3 1.24450793 6.46665292 2.03227295
39 3 1.24450793 10.77775487 2.03227295
40 3 1.24450793 15.08885682 2.03227295
41 3 1.24450793 19.39995876 2.03227295
42 3 1.24450793 23.71106071 2.03227295
43 3 3.73352380 2.15555097 2.03227295
44 3 3.73352380 6.46665292 2.03227295
45 3 3.73352380 10.77775487 2.03227295
46 3 3.73352380 15.08885682 2.03227295
47 3 3.73352380 19.39995876 2.03227295
48 3 3.73352380 23.71106071 2.03227295
49 3 6.22253967 2.15555097 2.03227295
50 3 6.22253967 6.46665292 2.03227295
51 3 6.22253967 10.77775487 2.03227295
52 3 6.22253967 15.08885682 2.03227295
53 3 6.22253967 19.39995876 2.03227295
54 3 6.22253967 23.71106071 2.03227295
55 3 8.71155554 2.15555097 2.03227295
56 3 8.71155554 6.46665292 2.03227295
57 3 8.71155554 10.77775487 2.03227295
58 3 8.71155554 15.08885682 2.03227295
59 3 8.71155554 19.39995876 2.03227295
60 3 8.71155554 23.71106071 2.03227295
61 3 11.20057141 2.15555097 2.03227295
62 3 11.20057141 6.46665292 2.03227295
63 3 11.20057141 10.77775487 2.03227295
64 3 11.20057141 15.08885682 2.03227295
65 3 11.20057141 19.39995876 2.03227295
66 3 11.20057141 23.71106071 2.03227295
67 3 13.68958728 2.15555097 2.03227295
68 3 13.68958728 6.46665292 2.03227295
69 3 13.68958728 10.77775487 2.03227295
70 3 13.68958728 15.08885682 2.03227295
71 3 13.68958728 19.39995876 2.03227295
72 3 13.68958728 23.71106071 2.03227295
73 3 0.00000000 0.00000000 4.06454590
74 3 0.00000000 4.31110195 4.06454590
75 3 0.00000000 8.62220389 4.06454590
76 3 0.00000000 12.93330584 4.06454590
77 3 0.00000000 17.24440779 4.06454590
78 3 0.00000000 21.55550974 4.06454590
79 3 2.48901587 0.00000000 4.06454590
80 3 2.48901587 4.31110195 4.06454590
81 3 2.48901587 8.62220389 4.06454590
82 3 2.48901587 12.93330584 4.06454590
83 3 2.48901587 17.24440779 4.06454590
84 3 2.48901587 21.55550974 4.06454590
85 3 4.97803174 0.00000000 4.06454590
86 3 4.97803174 4.31110195 4.06454590
87 3 4.97803174 8.62220389 4.06454590
88 3 4.97803174 12.93330584 4.06454590
89 3 4.97803174 17.24440779 4.06454590
90 3 4.97803174 21.55550974 4.06454590
91 3 7.46704761 0.00000000 4.06454590
92 3 7.46704761 4.31110195 4.06454590
93 3 7.46704761 8.62220389 4.06454590
94 3 7.46704761 12.93330584 4.06454590
95 3 7.46704761 17.24440779 4.06454590
96 3 7.46704761 21.55550974 4.06454590
97 3 9.95606348 0.00000000 4.06454590
98 3 9.95606348 4.31110195 4.06454590
99 3 9.95606348 8.62220389 4.06454590
100 3 9.95606348 12.93330584 4.06454590
101 3 9.95606348 17.24440779 4.06454590
102 3 9.95606348 21.55550974 4.06454590
103 3 12.44507935 0.00000000 4.06454590
104 3 12.44507935 4.31110195 4.06454590
105 3 12.44507935 8.62220389 4.06454590
106 3 12.44507935 12.93330584 4.06454590
107 3 12.44507935 17.24440779 4.06454590
108 3 12.44507935 21.55550974 4.06454590
109 3 1.24450793 0.00000000 6.09681884
110 3 1.24450793 4.31110195 6.09681884
111 3 1.24450793 8.62220389 6.09681884
112 3 1.24450793 12.93330584 6.09681884
113 3 1.24450793 17.24440779 6.09681884
114 3 1.24450793 21.55550974 6.09681884
115 3 3.73352380 0.00000000 6.09681884
116 3 3.73352380 4.31110195 6.09681884
117 3 3.73352380 8.62220389 6.09681884
118 3 3.73352380 12.93330584 6.09681884
119 3 3.73352380 17.24440779 6.09681884
120 3 3.73352380 21.55550974 6.09681884
121 3 6.22253967 0.00000000 6.09681884
122 3 6.22253967 4.31110195 6.09681884
123 3 6.22253967 8.62220389 6.09681884
124 3 6.22253967 12.93330584 6.09681884
125 3 6.22253967 17.24440779 6.09681884
126 3 6.22253967 21.55550974 6.09681884
127 3 8.71155554 0.00000000 6.09681884
128 3 8.71155554 4.31110195 6.09681884
129 3 8.71155554 8.62220389 6.09681884
130 3 8.71155554 12.93330584 6.09681884
131 3 8.71155554 17.24440779 6.09681884
132 3 8.71155554 21.55550974 6.09681884
133 3 11.20057141 0.00000000 6.09681884
134 3 11.20057141 4.31110195 6.09681884
135 3 11.20057141 8.62220389 6.09681884
136 3 11.20057141 12.93330584 6.09681884
137 3 11.20057141 17.24440779 6.09681884
138 3 11.20057141 21.55550974 6.09681884
139 3 13.68958728 0.00000000 6.09681884
140 3 13.68958728 4.31110195 6.09681884
141 3 13.68958728 8.62220389 6.09681884
142 3 13.68958728 12.93330584 6.09681884
143 3 13.68958728 17.24440779 6.09681884
144 3 13.68958728 21.55550974 6.09681884
145 3 0.00000000 0.00000000 8.12909179
146 3 0.00000000 4.31110195 8.12909179
147 3 0.00000000 8.62220389 8.12909179
148 3 0.00000000 12.93330584 8.12909179
149 3 0.00000000 17.24440779 8.12909179
150 3 0.00000000 21.55550974 8.12909179
151 3 2.48901587 0.00000000 8.12909179
152 3 2.48901587 4.31110195 8.12909179
153 3 2.48901587 8.62220389 8.12909179
154 3 2.48901587 12.93330584 8.12909179
155 3 2.48901587 17.24440779 8.12909179
156 3 2.48901587 21.55550974 8.12909179
157 3 4.97803174 0.00000000 8.12909179
158 3 4.97803174 4.31110195 8.12909179
159 3 4.97803174 8.62220389 8.12909179
160 3 4.97803174 12.93330584 8.12909179
161 3 4.97803174 17.24440779 8.12909179
162 3 4.97803174 21.55550974 8.12909179
163 3 7.46704761 0.00000000 8.12909179
164 3 7.46704761 4.31110195 8.12909179
165 3 7.46704761 8.62220389 8.12909179
166 3 7.46704761 12.93330584 8.12909179
167 3 7.46704761 17.24440779 8.12909179
168 3 7.46704761 21.55550974 8.12909179
169 3 9.95606348 0.00000000 8.12909179
170 3 9.95606348 4.31110195 8.12909179
171 3 9.95606348 8.62220389 8.12909179
172 3 9.95606348 12.93330584 8.12909179
173 3 9.95606348 17.24440779 8.12909179
174 3 9.95606348 21.55550974 8.12909179
175 3 12.44507935 0.00000000 8.12909179
176 3 12.44507935 4.31110195 8.12909179
177 3 12.44507935 8.62220389 8.12909179
178 3 12.44507935 12.93330584 8.12909179
179 3 12.44507935 17.24440779 8.12909179
180 3 12.44507935 21.55550974 8.12909179
181 3 1.24450793 2.15555097 10.16136474
182 3 1.24450793 6.46665292 10.16136474
183 3 1.24450793 10.77775487 10.16136474
184 3 1.24450793 15.08885682 10.16136474
185 3 1.24450793 19.39995876 10.16136474
186 3 1.24450793 23.71106071 10.16136474
187 3 3.73352380 2.15555097 10.16136474
188 3 3.73352380 6.46665292 10.16136474
189 3 3.73352380 10.77775487 10.16136474
190 3 3.73352380 15.08885682 10.16136474
191 3 3.73352380 19.39995876 10.16136474
192 3 3.73352380 23.71106071 10.16136474
193 3 6.22253967 2.15555097 10.16136474
194 3 6.22253967 6.46665292 10.16136474
195 3 6.22253967 10.77775487 10.16136474
196 3 6.22253967 15.08885682 10.16136474
197 3 6.22253967 19.39995876 10.16136474
198 3 6.22253967 23.71106071 10.16136474
199 3 8.71155554 2.15555097 10.16136474
200 3 8.71155554 6.46665292 10.16136474
201 3 8.71155554 10.77775487 10.16136474
202 3 8.71155554 15.08885682 10.16136474
203 3 8.71155554 19.39995876 10.16136474
204 3 8.71155554 23.71106071 10.16136474
205 3 11.20057141 2.15555097 10.16136474
206 3 11.20057141 6.46665292 10.16136474
207 3 11.20057141 10.77775487 10.16136474
208 3 11.20057141 15.08885682 10.16136474
209 3 11.20057141 19.39995876 10.16136474
210 3 11.20057141 23.71106071 10.16136474
211 3 13.68958728 2.15555097 10.16136474
212 3 13.68958728 6.46665292 10.16136474
213 3 13.68958728 10.77775487 10.16136474
214 3 13.68958728 15.08885682 10.16136474
215 3 13.68958728 19.39995876 10.16136474
216 3 13.68958728 23.71106071 10.16136474
217 3 0.00000000 0.00000000 12.19363769
218 3 0.00000000 4.31110195 12.19363769
219 3 0.00000000 8.62220389 12.19363769
220 3 0.00000000 12.93330584 12.19363769
221 3 0.00000000 17.24440779 12.19363769
222 3 0.00000000 21.55550974 12.19363769
223 3 2.48901587 0.00000000 12.19363769
224 3 2.48901587 4.31110195 12.19363769
225 3 2.48901587 8.62220389 12.19363769
226 3 2.48901587 12.93330584 12.19363769
227 3 2.48901587 17.24440779 12.19363769
228 3 2.48901587 21.55550974 12.19363769
229 3 4.97803174 0.00000000 12.19363769
230 3 4.97803174 4.31110195 12.19363769
231 3 4.97803174 8.62220389 12.19363769
232 3 4.97803174 12.93330584 12.19363769
233 3 4.97803174 17.24440779 12.19363769
234 3 4.97803174 21.55550974 12.19363769
235 3 7.46704761 0.00000000 12.19363769
236 3 7.46704761 4.31110195 12.19363769
237 3 7.46704761 8.62220389 12.19363769
238 3 7.46704761 12.93330584 12.19363769
239 3 7.46704761 17.24440779 12.19363769
240 3 7.46704761 21.55550974 12.19363769
241 3 9.95606348 0.00000000 12.19363769
242 3 9.95606348 4.31110195 12.19363769
243 3 9.95606348 8.62220389 12.19363769
244 3 9.95606348 12.93330584 12.19363769
245 3 9.95606348 17.24440779 12.19363769
246 3 9.95606348 21.55550974 12.19363769
247 3 12.44507935 0.00000000 12.19363769
248 3 12.44507935 4.31110195 12.19363769
249 3 12.44507935 8.62220389 12.19363769
250 3 12.44507935 12.93330584 12.19363769
251 3 12.44507935 17.24440779 12.19363769
252 3 12.44507935 21.55550974 12.19363769
253 3 1.24450793 0.00000000 14.22591063
254 3 1.24450793 4.31110195 14.22591063
255 3 1.24450793 8.62220389 14.22591063
256 3 1.24450793 12.93330584 14.22591063
257 3 1.24450793 17.24440779 14.22591063
258 3 1.24450793 21.55550974 14.22591063
259 3 3.73352380 0.00000000 14.22591063
260 3 3.73352380 4.31110195 14.22591063
261 3 3.73352380 8.62220389 14.22591063
262 3 3.73352380 12.93330584 14.22591063
263 3 3.73352380 17.24440779 14.22591063
264 3 3.73352380 21.55550974 14.22591063
265 3 6.22253967 0.00000000 14.22591063
266 3 6.22253967 4.31110195 14.22591063
267 3 6.22253967 8.62220389 14.22591063
268 3 6.22253967 12.93330584 14.22591063
269 3 6.22253967 17.24440779 14.22591063
270 3 6.22253967 21.55550974 14.22591063
271 3 8.71155554 0.00000000 14.22591063
272 3 8.71155554 4.31110195 14.22591063
273 3 8.71155554 8.62220389 14.22591063
274 3 8.71155554 12.93330584 14.22591063
275 3 8.71155554 17.24440779 14.22591063
276 3 8.71155554 21.55550974 14.22591063
277 3 11.20057141 0.00000000 14.22591063
278 3 11.20057141 4.31110195 14.22591063
279 3 11.20057141 8.62220389 14.22591063
280 3 11.20057141 12.93330584 14.22591063
281 3 11.20057141 17.24440779 14.22591063
282 3 11.20057141 21.55550974 14.22591063
283 3 13.68958728 0.00000000 14.22591063
284 3 13.68958728 4.31110195 14.22591063
285 3 13.68958728 8.62220389 14.22591063
286 3 13.68958728 12.93330584 14.22591063
287 3 13.68958728 17.24440779 14.22591063
288 3 13.68958728 21.55550974 14.22591063
289 3 0.00000000 0.00000000 16.25818358
290 3 0.00000000 4.31110195 16.25818358
291 3 0.00000000 8.62220389 16.25818358
292 3 0.00000000 12.93330584 16.25818358
293 3 0.00000000 17.24440779 16.25818358
294 3 0.00000000 21.55550974 16.25818358
295 3 2.48901587 0.00000000 16.25818358
296 3 2.48901587 4.31110195 16.25818358
297 3 2.48901587 8.62220389 16.25818358
298 3 2.48901587 12.93330584 16.25818358
299 3 2.48901587 17.24440779 16.25818358
300 3 2.48901587 21.55550974 16.25818358
301 3 4.97803174 0.00000000 16.25818358
302 3 4.97803174 4.31110195 16.25818358
303 3 4.97803174 8.62220389 16.25818358
304 3 4.97803174 12.93330584 16.25818358
305 3 4.97803174 17.24440779 16.25818358
306 3 4.97803174 21.55550974 16.25818358
307 3 7.46704761 0.00000000 16.25818358
308 3 7.46704761 4.31110195 16.25818358
309 3 7.46704761 8.62220389 16.25818358
310 3 7.46704761 12.93330584 16.25818358
311 3 7.46704761 17.24440779 16.25818358
312 3 7.46704761 21.55550974 16.25818358
313 3 9.95606348 0.00000000 16.25818358
314 3 9.95606348 4.31110195 16.25818358
315 3 9.95606348 8.62220389 16.25818358
316 3 9.95606348 12.93330584 16.25818358
317 3 9.95606348 17.24440779 16.25818358
318 3 9.95606348 21.55550974 16.25818358
319 3 12.44507935 0.00000000 16.25818358
320 3 12.44507935 4.31110195 16.25818358
321 3 12.44507935 8.62220389 16.25818358
322 3 12.44507935 12.93330584 16.25818358
323 3 12.44507935 17.24440779 16.25818358
324 3 12.44507935 21.55550974 16.25818358
325 3 1.24450793 2.15555097 18.29045653
326 3 1.24450793 6.46665292 18.29045653
327 3 1.24450793 10.77775487 18.29045653
328 3 1.24450793 15.08885682 18.29045653
329 3 1.24450793 19.39995876 18.29045653
330 3 1.24450793 23.71106071 18.29045653
331 3 3.73352380 2.15555097 18.29045653
332 3 3.73352380 6.46665292 18.29045653
333 3 3.73352380 10.77775487 18.29045653
334 3 3.73352380 15.08885682 18.29045653
335 3 3.73352380 19.39995876 18.29045653
336 3 3.73352380 23.71106071 18.29045653
337 3 6.22253967 2.15555097 18.29045653
338 3 6.22253967 6.46665292 18.29045653
339 3 6.22253967 10.77775487 18.29045653
340 3 6.22253967 15.08885682 18.29045653
341 3 6.22253967 19.39995876 18.29045653
342 3 6.22253967 23.71106071 18.29045653
343 3 8.71155554 2.15555097 18.29045653
344 3 8.71155554 6.46665292 18.29045653
345 3 8.71155554 10.77775487 18.29045653
346 3 8.71155554 15.08885682 18.29045653
347 3 8.71155554 19.39995876 18.29045653
348 3 8.71155554 23.71106071 18.29045653
349 3 11.20057141 2.15555097 18.29045653
350 3 11.20057141 6.46665292 18.29045653
351 3 11.20057141 10.77775487 18.29045653
352 3 11.20057141 15.08885682 18.29045653
353 3 11.20057141 19.39995876 18.29045653
354 3 11.20057141 23.71106071 18.29045653
355 3 13.68958728 2.15555097 18.29045653
356 3 13.68958728 6.46665292 18.29045653
357 3 13.68958728 10.77775487 18.29045653
358 3 13.68958728 15.08885682 18.29045653
359 3 13.68958728 19.39995876 18.29045653
360 3 13.68958728 23.71106071 18.29045653
361 3 0.00000000 0.00000000 20.32272948
362 3 0.00000000 4.31110195 20.32272948
363 3 0.00000000 8.62220389 20.32272948
364 3 0.00000000 12.93330584 20.32272948
365 3 0.00000000 17.24440779 20.32272948
366 3 0.00000000 21.55550974 20.32272948
367 3 2.48901587 0.00000000 20.32272948
368 3 2.48901587 4.31110195 20.32272948
369 3 2.48901587 8.62220389 20.32272948
370 3 2.48901587 12.93330584 20.32272948
371 3 2.48901587 17.24440779 20.32272948
372 3 2.48901587 21.55550974 20.32272948
373 3 4.97803174 0.00000000 20.32272948
374 3 4.97803174 4.31110195 20.32272948
375 3 4.97803174 8.62220389 20.32272948
376 3 4.97803174 12.93330584 20.32272948
377 3 4.97803174 17.24440779 20.32272948
378 3 4.97803174 21.55550974 20.32272948
379 3 7.46704761 0.00000000 20.32272948
380 3 7.46704761 4.31110195 20.32272948
381 3 7.46704761 8.62220389 20.32272948
382 3 7.46704761 12.93330584 20.32272948
383 3 7.46704761 17.24440779 20.32272948
384 3 7.46704761 21.55550974 20.32272948
385 3 9.95606348 0.00000000 20.32272948
386 3 9.95606348 4.31110195 20.32272948
387 3 9.95606348 8.62220389 20.32272948
388 3 9.95606348 12.93330584 20.32272948
389 3 9.95606348 17.24440779 20.32272948
390 3 9.95606348 21.55550974 20.32272948
391 3 12.44507935 0.00000000 20.32272948
392 3 12.44507935 4.31110195 20.32272948
393 3 12.44507935 8.62220389 20.32272948
394 3 12.44507935 12.93330584 20.32272948
395 3 12.44507935 17.24440779 20.32272948
396 3 12.44507935 21.55550974 20.32272948
397 3 1.24450793 0.00000000 22.35500242
398 3 1.24450793 4.31110195 22.35500242
399 3 1.24450793 8.62220389 22.35500242
400 3 1.24450793 12.93330584 22.35500242
401 3 1.24450793 17.24440779 22.35500242
402 3 1.24450793 21.55550974 22.35500242
403 3 3.73352380 0.00000000 22.35500242
404 3 3.73352380 4.31110195 22.35500242
405 3 3.73352380 8.62220389 22.35500242
406 3 3.73352380 12.93330584 22.35500242
407 3 3.73352380 17.24440779 22.35500242
408 3 3.73352380 21.55550974 22.35500242
409 3 6.22253967 0.00000000 22.35500242
410 3 6.22253967 4.31110195 22.35500242
411 3 6.22253967 8.62220389 22.35500242
412 3 6.22253967 12.93330584 22.35500242
413 3 6.22253967 17.24440779 22.35500242
414 3 6.22253967 21.55550974 22.35500242
415 3 8.71155554 0.00000000 22.35500242
416 3 8.71155554 4.31110195 22.35500242
417 3 8.71155554 8.62220389 22.35500242
418 3 8.71155554 12.93330584 22.35500242
419 3 8.71155554 17.24440779 22.35500242
420 3 8.71155554 21.55550974 22.35500242
421 3 11.20057141 0.00000000 22.35500242
422 3 11.20057141 4.31110195 22.35500242
423 3 11.20057141 8.62220389 22.35500242
424 3 11.20057141 12.93330584 22.35500242
425 3 11.20057141 17.24440779 22.35500242
426 3 11.20057141 21.55550974 22.35500242
427 3 13.68958728 0.00000000 22.35500242
428 3 13.68958728 4.31110195 22.35500242
429 3 13.68958728 8.62220389 22.35500242
430 3 13.68958728 12.93330584 22.35500242
431 3 13.68958728 17.24440779 22.35500242
432 3 13.68958728 21.55550974 22.35500242
