LAMMPS (10 Sep 2025)
  using 8 OpenMP thread(s) per MPI task
Loaded 1 plugins from C:\Users\J.Shiva\AppData\Local\LAMMPS 64-bit 10Sep2025\plugins
using multi-threaded neighbor list subroutines
Reading data file ...
  orthogonal box = (0 0 0) to (15.188654 26.30752 24.802968)
  1 by 1 by 1 MPI processor grid
  reading atoms ...
  432 atoms
  read_data CPU = 0.006 seconds
=== STAGE 1: Energy Minimization ===
Switching to 'neigh_modify every 1 delay 0 check yes' setting during minimization
No /omp style for force computation currently active
Neighbor list info ...
  update: every = 1 steps, delay = 0 steps, check = yes
  max neighbors/atom: 4000, page size: 100000
  master list distance cutoff = 8
  ghost atom cutoff = 8
  binsize = 4, bins = 4 7 7
  2 neighbor lists, perpetual/occasional/extra = 2 0 0
  (1) pair meam, perpetual
      attributes: full, newton on, omp
      pair build: full/bin/atomonly/omp
      stencil: full/bin/3d
      bin: standard
  (2) pair meam, perpetual, half/full from (1)
      attributes: half, newton on, omp
      pair build: halffull/newton/omp
      stencil: none
      bin: none
Setting up cg style minimization ...
  Unit style    : metal
  Current step  : 0
Per MPI rank memory allocation (min/avg/max) = 19.42 | 19.42 | 19.42 Mbytes
   Step          Temp          PotEng         KinEng         TotEng         Press          Volume           Lx             Ly             Lz      
         0   0             -1361.2549      0             -1361.2549     -82507.024      9910.6658      15.188654      26.30752       24.802968    
       385   0             -1892.4161      0             -1892.4161     -20377.381      9910.6658      15.188654      26.30752       24.802968    
Loop time of 15.211 on 8 procs for 385 steps with 432 atoms

92.3% CPU use with 1 MPI tasks x 8 OpenMP threads

Minimization stats:
  Stopping criterion = energy tolerance
  Energy initial, next-to-last, final = 
     -1361.25488049127  -1892.41445888957  -1892.41608187195
  Force two-norm initial, final = 23.490112 0.16016541
  Force max component initial, final = 2.114729 0.038830622
  Final line search alpha, max atom move = 1 0.038830622
  Iterations, force evaluations = 385 715

MPI task timing breakdown:
Section |  min time  |  avg time  |  max time  |%varavg| %total
---------------------------------------------------------------
Pair    | 14.944     | 14.944     | 14.944     |   0.0 | 98.25
Neigh   | 0.036516   | 0.036516   | 0.036516   |   0.0 |  0.24
Comm    | 0.010216   | 0.010216   | 0.010216   |   0.0 |  0.07
Output  | 0          | 0          | 0          |   0.0 |  0.00
Modify  | 0.20169    | 0.20169    | 0.20169    |   0.0 |  1.33
Other   |            | 0.01813    |            |       |  0.12

Nlocal:            432 ave         432 max         432 min
Histogram: 1 0 0 0 0 0 0 0 0 0
Nghost:           1545 ave        1545 max        1545 min
Histogram: 1 0 0 0 0 0 0 0 0 0
Neighs:          28213 ave       28213 max       28213 min
Histogram: 1 0 0 0 0 0 0 0 0 0
FullNghs:        56426 ave       56426 max       56426 min
Histogram: 1 0 0 0 0 0 0 0 0 0

Total # of neighbors = 56426
Ave neighs/atom = 130.61574
Neighbor list builds = 16
Dangerous builds = 0
Minimized PE/atom: -4.38059278211099 eV/atom
=== STAGE 2: NPT Equilibration at 200 K ===
No /omp style for force computation currently active
Setting up Verlet run ...
  Unit style    : metal
  Current step  : 0
  Time step     : 0.002
Per MPI rank memory allocation (min/avg/max) = 18.47 | 18.47 | 18.47 Mbytes
   Step          Temp          PotEng         KinEng         TotEng         Press          Volume           Lx             Ly             Lz      
         0   200           -1892.4161      11.142224     -1881.2739     -19176.533      9910.6658      15.188654      26.30752       24.802968    
       500   216.10073     -1891.8632      12.039214     -1879.824      -1105.2032      8627.1673      14.50244       25.118963      23.682385    
      1000   218.74155     -1898.3492      12.186337     -1886.1628     -2501.917       8404.4115      14.376531      24.900882      23.476777    
      1500   198.26506     -1904.3428      11.045569     -1893.2972     -2665.1388      8209.1766      14.264335      24.706553      23.293562    
      2000   217.08879     -1906.8303      12.09426      -1894.736      -404.16677      8042.069       14.166882      24.537759      23.134421    
      2500   201.72601     -1912.3063      11.238382     -1901.0679     -2491.7923      7640.3156      13.926931      24.122153      22.742584    
      3000   199.77943     -1915.2139      11.129936     -1904.0839      5478.0897      7512.0329      13.848546      23.986384      22.61458     
      3500   192.755       -1915.0236      10.738597     -1904.285      -2163.2796      7533.4041      13.861666      24.009109      22.636005    
      4000   218.60767     -1916.9784      12.178878     -1904.7996     -194.94195      7444.6228      13.806997      23.914421      22.546732    
      4500   198.14254     -1921.5816      11.038743     -1910.5428      321.5277       7188.7402      13.64696       23.637229      22.285393    
      5000   203.60082     -1922.3941      11.34283      -1911.0513      1486.8421      7132.0627      13.611001      23.574945      22.226671    
      5500   209.07345     -1922.3334      11.647717     -1910.6857     -1105.8809      7094.3889      13.586992      23.533361      22.187466    
      6000   203.456       -1923.3957      11.334762     -1912.061      -2474.3656      7154.8929      13.625508      23.600073      22.250362    
      6500   197.32456     -1923.5869      10.993173     -1912.5937      3819.0955      7110.0119      13.596959      23.550623      22.203741    
      7000   200.1212      -1922.8609      11.148977     -1911.7119     -2885.7709      7125.4724      13.606807      23.567681      22.219823    
      7500   207.17031     -1923.8732      11.541691     -1912.3315     -2808.5889      7148.5946      13.621509      23.593146      22.243831    
      8000   193.31248     -1923.74        10.769655     -1912.9703     -777.72293      7138.3274      13.614985      23.581845      22.233177    
      8500   197.19459     -1923.6692      10.985932     -1912.6833     -417.75276      7130.0204      13.609701      23.572694      22.224549    
      9000   196.2356      -1923.8115      10.932506     -1912.879       3404.2475      7041.6986      13.553272      23.474955      22.1324      
      9500   201.25189     -1923.5693      11.211969     -1912.3573     -1711.0856      7129.5154      13.60938       23.572138      22.224024    
     10000   201.87511     -1925.7035      11.246689     -1914.4568      730.47584      6999.8671      13.526381      23.428378      22.088487    
     10500   215.89961     -1925.7491      12.028009     -1913.7211      402.65581      7014.6127      13.535872      23.444818      22.103986    
     11000   201.17305     -1924.9327      11.207576     -1913.7251     -614.85483      7025.8721      13.54311       23.457355      22.115807    
     11500   193.82552     -1925.6956      10.798238     -1914.8973      2260.088       7052.071       13.559923      23.486476      22.143262    
     12000   195.21846     -1925.2621      10.87584      -1914.3862     -603.30632      7029.5619      13.545481      23.461461      22.119677    
     12500   212.67668     -1925.2863      11.848456     -1913.4379     -3023.132       6980.8826      13.514141      23.407179      22.0685      
     13000   203.72956     -1925.111       11.350003     -1913.761       1528.9627      6976.2448      13.511148      23.401994      22.063612    
     13500   196.99955     -1925.7703      10.975066     -1914.7952      1834.992       6994.1904      13.522723      23.422043      22.082514    
     14000   188.25751     -1926.8395      10.488037     -1916.3515     -2385.7113      6878.0013      13.447424      23.291621      21.959551    
     14500   195.27465     -1926.9936      10.87897      -1916.1146      2407.3625      6852.894       13.431041      23.263245      21.932798    
     15000   201.65065     -1927.5194      11.234184     -1916.2852     -958.95434      6862.3528      13.437218      23.273944      21.942884    
     15500   209.62358     -1927.2179      11.678365     -1915.5396     -355.24267      6863.846       13.438192      23.275632      21.944476    
     16000   197.67926     -1927.1145      11.012934     -1916.1016     -396.1807       6825.5099      13.413127      23.232217      21.903545    
     16500   194.32858     -1927.6606      10.826263     -1916.8344      873.42574      6889.0459      13.454618      23.304081      21.971299    
     17000   190.40849     -1927.5309      10.607871     -1916.923       1874.5568      6839.4288      13.422238      23.247999      21.918423    
     17500   210.70382     -1927.8831      11.738546     -1916.1445     -2130.8456      6872.2988      13.443706      23.285182      21.95348     
     18000   194.69675     -1927.6461      10.846774     -1916.7993      674.02554      6857.4697      13.43403       23.268422      21.937678    
     18500   191.6033      -1928.124       10.674435     -1917.4496     -2.7522928      6876.6394      13.446536      23.290084      21.958101    
     19000   188.52304     -1928.6796      10.50283      -1918.1768     -934.60295      6854.3393      13.431985      23.264881      21.93434     
     19500   198.80131     -1927.5891      11.075444     -1916.5137     -840.00684      6835.5377      13.419692      23.243589      21.914266    
     20000   192.29094     -1927.2609      10.712744     -1916.5482      1290.6772      6757.2948      13.368293      23.154563      21.830331    
Loop time of 540.358 on 8 procs for 20000 steps with 432 atoms

Performance: 6.396 ns/day, 3.752 hours/ns, 37.013 timesteps/s, 15.989 katom-step/s
92.4% CPU use with 1 MPI tasks x 8 OpenMP threads

MPI task timing breakdown:
Section |  min time  |  avg time  |  max time  |%varavg| %total
---------------------------------------------------------------
Pair    | 507.79     | 507.79     | 507.79     |   0.0 | 93.97
Neigh   | 0.064611   | 0.064611   | 0.064611   |   0.0 |  0.01
Comm    | 0.32436    | 0.32436    | 0.32436    |   0.0 |  0.06
Output  | 0.006964   | 0.006964   | 0.006964   |   0.0 |  0.00
Modify  | 32.109     | 32.109     | 32.109     |   0.0 |  5.94
Other   |            | 0.06674    |            |       |  0.01

Nlocal:            432 ave         432 max         432 min
Histogram: 1 0 0 0 0 0 0 0 0 0
Nghost:           2208 ave        2208 max        2208 min
Histogram: 1 0 0 0 0 0 0 0 0 0
Neighs:          31325 ave       31325 max       31325 min
Histogram: 1 0 0 0 0 0 0 0 0 0
FullNghs:        62650 ave       62650 max       62650 min
Histogram: 1 0 0 0 0 0 0 0 0 0

Total # of neighbors = 62650
Ave neighs/atom = 145.02315
Neighbor list builds = 24
Dangerous builds = 0
=== STAGE 3: NPT Production at 200 K ===
No /omp style for force computation currently active
Setting up Verlet run ...
  Unit style    : metal
  Current step  : 0
  Time step     : 0.001
Per MPI rank memory allocation (min/avg/max) = 18.76 | 18.76 | 18.76 Mbytes
   Step          Temp          PotEng         KinEng         TotEng         Press          Volume           Lx             Ly             Lz      
         0   192.29094     -1927.2609      10.712744     -1916.5482      1290.6772      6757.2948      13.368293      23.154563      21.830331    
       500   204.62954     -1928.5552      11.400141     -1917.1551     -2045.5165      6772.8679      13.378555      23.172337      21.847089    
      1000   193.65061     -1929.063       10.788493     -1918.2746      1552.1742      6684.633       13.320203      23.071269      21.751801    
      1500   199.6417      -1929.0855      11.122263     -1917.9633      1479.5442      6742.1794      13.358318      23.137285      21.814042    
      2000   202.82822     -1928.2822      11.299788     -1916.9824     -2685.0438      6741.8427      13.358095      23.1369        21.813678    
      2500   192.61491     -1927.4067      10.730793     -1916.6759     -1638.9946      6754.9624      13.366755      23.151898      21.827819    
      3000   201.53982     -1928.7303      11.22801      -1917.5023      1252.9401      6718.3675      13.342573      23.110014      21.78833     
      3500   199.17946     -1929.301       11.096512     -1918.2045     -198.6793       6718.487       13.342652      23.110151      21.78846     
      4000   186.74325     -1928.9897      10.403676     -1918.5861      2096.8216      6747.6141      13.361906      23.1435        21.819901    
      4500   190.18903     -1929.3955      10.595645     -1918.7999      191.97137      6728.9481      13.349574      23.12214       21.799762    
      5000   202.50032     -1928.9332      11.28152      -1917.6517      949.67629      6754.6584      13.366554      23.151551      21.827492    
      5500   203.97878     -1928.8693      11.363887     -1917.5054     -306.64209      6718.1913      13.342456      23.109812      21.78814     
      6000   190.93652     -1928.6965      10.637288     -1918.0592      1021.2462      6685.724       13.320928      23.072524      21.752984    
      6500   181.11411     -1929.5925      10.09007      -1919.5024      5396.8755      6661.7246      13.30497       23.044884      21.726925    
      7000   201.87864     -1929.7468      11.246885     -1918.5         913.25635      6684.3616      13.320023      23.070957      21.751507    
      7500   202.21655     -1929.2839      11.265711     -1918.0182      756.39928      6682.6862      13.31891       23.069029      21.749689    
      8000   205.91185     -1928.8383      11.47158      -1917.3667     -556.47803      6697.1401      13.328506      23.085649      21.765359    
      8500   195.50193     -1928.9145      10.891632     -1918.0228     -1975.2167      6693.8573      13.326328      23.081876      21.761802    
      9000   188.17723     -1929.9621      10.483565     -1919.4785      2459.4277      6665.7321      13.307637      23.049504      21.731281    
      9500   211.72741     -1929.9129      11.795572     -1918.1173     -2820.7442      6694.1684      13.326534      23.082234      21.762139    
     10000   213.77839     -1929.4507      11.909834     -1917.5409     -3462.7514      6680.5375      13.317483      23.066556      21.747358    
     10500   212.60229     -1929.9676      11.844312     -1918.1233     -81.05883       6655.3056      13.300695      23.03748       21.719944    
     11000   206.08943     -1929.4901      11.481474     -1918.0086     -2624.9312      6665.9825      13.307804      23.049792      21.731553    
     11500   203.29196     -1929.0629      11.325623     -1917.7373     -2156.6548      6685.2168      13.320591      23.071941      21.752434    
     12000   196.92124     -1929.4841      10.970703     -1918.5134      605.49608      6644.3034      13.293362      23.024778      21.707969    
     12500   202.76072     -1929.6787      11.296027     -1918.3827      2525.9169      6678.5709      13.316176      23.064293      21.745224    
     13000   204.00059     -1929.0703      11.365102     -1917.7052      414.30513      6644.9625      13.293801      23.025539      21.708686    
     13500   204.00567     -1929.6778      11.365385     -1918.3124      2426.462       6652.8023      13.299027      23.034591      21.717221    
     14000   198.91335     -1930.1892      11.081686     -1919.1075     -52.4033        6670.2762      13.310661      23.05474       21.736218    
     14500   194.07144     -1930.2426      10.811938     -1919.4307      1779.353       6617.1241      13.275211      22.99334       21.678329    
     15000   200.99696     -1929.6615      11.197766     -1918.4637     -2662.3653      6713.0881      13.339077      23.103959      21.782622    
     15500   194.00883     -1930.1072      10.80845      -1919.2988      1992.4092      6631.299       13.284683      23.009746      21.693797    
     16000   190.17193     -1930.2212      10.594692     -1919.6265     -1265.6345      6652.0837      13.298548      23.033761      21.716439    
     16500   194.95642     -1930.3895      10.861241     -1919.5282      948.77744      6688.1016      13.322507      23.075259      21.755563    
     17000   201.1331      -1929.7751      11.205351     -1918.5697      4744.0264      6599.4954      13.263412      22.972903      21.65906     
     17500   202.5514      -1929.8916      11.284366     -1918.6072     -2676.4154      6681.6184      13.318201      23.0678        21.748531    
     18000   201.70696     -1930.2059      11.237321     -1918.9686     -451.90228      6667.3821      13.308735      23.051406      21.733074    
     18500   207.58732     -1929.9052      11.564923     -1918.3403      4463.9894      6581.3688      13.251257      22.95185       21.639212    
     19000   194.23946     -1931.7947      10.821298     -1920.9734     -3991.7824      6553.9115      13.232803      22.919888      21.609077    
     19500   215.34272     -1935.0755      11.996985     -1923.0786     -1550.3096      6331.7264      13.081545      22.657901      21.362074    
     20000   470.47352     -1987.148       26.210608     -1960.9374      3647.431       5425.8075      12.425288      21.52123       20.29041     
     20500   248.81873     -2033.4589      13.861971     -2019.5969     -2792.0269      5274.1328      12.308412      21.318795      20.099553    
     21000   200.57823     -2047.3001      11.174438     -2036.1257      469.63363      5238.1417      12.28035       21.27019       20.053728    
     21500   206.13356     -2048.0183      11.483932     -2036.5344     -2887.1636      5242.9706      12.284123      21.276724      20.059888    
     22000   205.41187     -2051.7506      11.443726     -2040.3069      265.75916      5230.0646      12.274035      21.259252      20.043415    
     22500   201.56787     -2052.0153      11.229572     -2040.7858      4172.3017      5216.9724      12.263785      21.241498      20.026676    
     23000   193.69918     -2051.7545      10.791199     -2040.9633     -4336.3302      5243.7396      12.284723      21.277765      20.060869    
     23500   206.00776     -2052.1251      11.476924     -2040.6482      181.78642      5227.462       12.271999      21.255725      20.04009     
     24000   209.50254     -2052.145       11.671622     -2040.4734      2072.8412      5222.6916      12.268264      21.249257      20.033992    
     24500   195.54952     -2051.6057      10.894283     -2040.7114      3677.6748      5215.4414      12.262585      21.23942       20.024717    
     25000   193.83551     -2052.7927      10.798794     -2041.9939     -897.69308      5228.4552      12.272776      21.257071      20.041359    
     25500   198.00195     -2053.799       11.030911     -2042.7681      277.76179      5221.9371      12.267674      21.248234      20.033027    
     26000   187.16721     -2055.4438      10.427295     -2045.0165      723.5848       5217.3413      12.264074      21.241999      20.027148    
     26500   199.59289     -2054.8357      11.119544     -2043.7162     -1222.9919      5223.608       12.268982      21.2505        20.035164    
     27000   200.36405     -2054.4433      11.162506     -2043.2808      5964.6509      5202.5467      12.25247       21.221901      20.0082      
     27500   202.42117     -2055.1102      11.27711      -2043.8331     -5200.831       5236.8806      12.279365      21.268483      20.052118    
     28000   194.48207     -2055.6035      10.834814     -2044.7687      134.06397      5212.0603      12.259934      21.234829      20.020389    
     28500   198.01564     -2055.8734      11.031673     -2044.8417     -1331.0412      5220.8319      12.266808      21.246735      20.031614    
     29000   206.8381      -2055.8386      11.523183     -2044.3154      6603.0403      5197.0497      12.248154      21.214424      20.001151    
     29500   195.246       -2054.6836      10.877374     -2043.8062     -1619.3978      5225.938       12.270806      21.253659      20.038142    
     30000   213.33307     -2055.1192      11.885025     -2043.2342      2598.1758      5211.1509      12.259221      21.233594      20.019225    
     30500   213.99498     -2055.9459      11.9219       -2044.024       3116.2551      5206.6251      12.255671      21.227445      20.013427    
     31000   197.06747     -2056.1905      10.97885      -2045.2117     -102.31266      5216.0004      12.263023      21.240179      20.025433    
     31500   210.80349     -2057.2004      11.744099     -2045.4563      29.953386      5214.2044      12.261615      21.237741      20.023134    
     32000   188.65953     -2057.0521      10.510434     -2046.5416     -701.5532       5217.6909      12.264348      21.242473      20.027596    
     32500   197.37544     -2056.6607      10.996007     -2045.6647     -3080.9607      5225.9008      12.270777      21.253609      20.038095    
     33000   208.33886     -2057.2783      11.606792     -2045.6715      3807.7031      5205.6496      12.254906      21.22612       20.012177    
     33500   200.50944     -2057.758       11.170606     -2046.5874     -5084.3261      5232.2828      12.27577       21.262257      20.046248    
     34000   197.60024     -2057.7357      11.008531     -2046.7272      3232.6147      5203.8293      12.253477      21.223645      20.009845    
     34500   199.41835     -2056.7285      11.10982      -2045.6187      1205.7769      5213.7086      12.261227      21.237068      20.022499    
     35000   200.24344     -2057.4047      11.155787     -2046.249      -7295.1312      5239.2659      12.281229      21.271712      20.055162    
     35500   193.2844      -2057.4091      10.768091     -2046.641       2698.0787      5204.9883      12.254387      21.225221      20.01133     
     36000   194.17754     -2057.8413      10.817849     -2047.0234     -3684.1407      5226.1246      12.270952      21.253912      20.038381    
     36500   204.61805     -2057.5341      11.399501     -2046.1346     -4483.584       5232.5539      12.275982      21.262624      20.046594    
     37000   202.13795     -2057.639       11.261332     -2046.3777      6976.5498      5195.2667      12.246753      21.211998      19.998864    
     37500   196.71425     -2056.7859      10.959172     -2045.8268      1568.287       5211.8936      12.259804      21.234603      20.020176    
     38000   200.22241     -2056.7552      11.154615     -2045.6005     -1746.6575      5224.9628      12.270043      21.252337      20.036896    
     38500   205.06138     -2056.9805      11.4242       -2045.5563      704.23103      5216.6112      12.263502      21.241008      20.026214    
     39000   214.21218     -2057.4621      11.934001     -2045.5281     -681.2647       5220.1346      12.266262      21.245789      20.030722    
     39500   194.52618     -2057.0107      10.837272     -2046.1734     -1432.4856      5220.7705      12.26676       21.246652      20.031535    
     40000   203.65851     -2056.1638      11.346044     -2044.8178     -3405.388       5230.2116      12.27415       21.259451      20.043603    
     40500   202.0416      -2056.6765      11.255964     -2045.4205      4805.3409      5202.1014      12.252121      21.221296      20.00763     
     41000   208.1827      -2057.5318      11.598092     -2045.9337      2700.6128      5209.3422      12.257803      21.231137      20.016908    
     41500   195.92689     -2057.7248      10.915307     -2046.8095     -3188.3439      5223.0339      12.268532      21.249722      20.03443     
     42000   205.04701     -2057.3403      11.423399     -2045.9169      1524.3439      5211.92        12.259824      21.234639      20.020209    
     42500   205.24693     -2056.971       11.434537     -2045.5364     -866.48315      5220.6016      12.266628      21.246422      20.031319    
     43000   207.16241     -2057.7502      11.54125      -2046.2089     -751.46295      5217.7947      12.264429      21.242614      20.027729    
     43500   191.36791     -2057.416       10.661321     -2046.7546      4291.0873      5203.5118      12.253228      21.223214      20.009438    
     44000   203.27445     -2057.3904      11.324648     -2046.0657      2052.6116      5207.2906      12.256193      21.22835       20.01428     
     44500   216.51236     -2057.4239      12.062147     -2045.3618     -2461.928       5224.1582      12.269413      21.251246      20.035867    
     45000   199.18186     -2057.0459      11.096645     -2045.9493      3702.2941      5204.784       12.254227      21.224943      20.011068    
     45500   197.49652     -2057.5555      11.002753     -2046.5528      1050.8044      5214.5889      12.261917      21.238263      20.023626    
     46000   190.5339      -2057.6836      10.614857     -2047.0688     -859.53526      5217.0928      12.263879      21.241661      20.026831    
     46500   195.34953     -2057.3798      10.883142     -2046.4967      269.17907      5216.509       12.263422      21.240869      20.026084    
     47000   196.84866     -2057.429       10.96666      -2046.4623      2780.1257      5208.1144      12.25684       21.229469      20.015335    
     47500   190.24661     -2057.9666      10.598852     -2047.3677     -4670.0966      5230.2755      12.2742        21.259538      20.043684    
     48000   197.2664      -2057.2012      10.989933     -2046.2113     -5680.351       5235.6059      12.278368      21.266757      20.050491    
     48500   219.75997     -2057.8306      12.243074     -2045.5876      4793.8837      5201.1147      12.251346      21.219954      20.006365    
     49000   181.21935     -2057.4413      10.095933     -2047.3454      685.69064      5215.1893      12.262387      21.239078      20.024395    
     49500   196.85006     -2057.7858      10.966738     -2046.8191      283.95299      5215.2173      12.262409      21.239116      20.02443     
     50000   208.39193     -2057.3969      11.609749     -2045.7871     -2454.3153      5227.8692      12.272317      21.256277      20.04061     
Loop time of 1012.12 on 8 procs for 50000 steps with 432 atoms

Performance: 4.268 ns/day, 5.623 hours/ns, 49.401 timesteps/s, 21.341 katom-step/s
93.1% CPU use with 1 MPI tasks x 8 OpenMP threads

MPI task timing breakdown:
Section |  min time  |  avg time  |  max time  |%varavg| %total
---------------------------------------------------------------
Pair    | 955.1      | 955.1      | 955.1      |   0.0 | 94.37
Neigh   | 0.032237   | 0.032237   | 0.032237   |   0.0 |  0.00
Comm    | 0.62231    | 0.62231    | 0.62231    |   0.0 |  0.06
Output  | 0.010779   | 0.010779   | 0.010779   |   0.0 |  0.00
Modify  | 56.242     | 56.242     | 56.242     |   0.0 |  5.56
Other   |            | 0.1112     |            |       |  0.01

Nlocal:            432 ave         432 max         432 min
Histogram: 1 0 0 0 0 0 0 0 0 0
Nghost:           2712 ave        2712 max        2712 min
Histogram: 1 0 0 0 0 0 0 0 0 0
Neighs:          37517 ave       37517 max       37517 min
Histogram: 1 0 0 0 0 0 0 0 0 0
FullNghs:        75034 ave       75034 max       75034 min
Histogram: 1 0 0 0 0 0 0 0 0 0

Total # of neighbors = 75034
Ave neighs/atom = 173.68981
Neighbor list builds = 13
Dangerous builds = 0

=== FINAL RESULTS: DHCP at 200 K ===
Atoms: 432 | PE/atom: -4.76276078280471 eV/atom
WARNING: Detected non-ASCII characters in input. Will try to continue by replacing with ASCII equivalents where known. (src/input.cpp:479)
Volume: 5227.8692264711 …³ | Area: 260.863775339842 ²
==========================================
DHCP 200 432 -4.76276078280471 5227.8692264711 12.2723172588163 21.2562770207428 20.0406101600747 260.863775339842
Simulation complete!
Total wall time: 0:26:07
