LAMMPS (10 Sep 2025)
  using 8 OpenMP thread(s) per MPI task
Loaded 1 plugins from C:\Users\J.Shiva\AppData\Local\LAMMPS 64-bit 10Sep2025\plugins
using multi-threaded neighbor list subroutines
Reading data file ...
  orthogonal box = (0 0 0) to (15.188654 26.30752 24.802968)
  1 by 1 by 1 MPI processor grid
  reading atoms ...
  432 atoms
  read_data CPU = 0.024 seconds
=== STAGE 1: Energy Minimization ===
Switching to 'neigh_modify every 1 delay 0 check yes' setting during minimization
No /omp style for force computation currently active
Neighbor list info ...
  update: every = 1 steps, delay = 0 steps, check = yes
  max neighbors/atom: 4000, page size: 100000
  master list distance cutoff = 8
  ghost atom cutoff = 8
  binsize = 4, bins = 4 7 7
  2 neighbor lists, perpetual/occasional/extra = 2 0 0
  (1) pair meam, perpetual
      attributes: full, newton on, omp
      pair build: full/bin/atomonly/omp
      stencil: full/bin/3d
      bin: standard
  (2) pair meam, perpetual, half/full from (1)
      attributes: half, newton on, omp
      pair build: halffull/newton/omp
      stencil: none
      bin: none
Setting up cg style minimization ...
  Unit style    : metal
  Current step  : 0
Per MPI rank memory allocation (min/avg/max) = 19.46 | 19.46 | 19.46 Mbytes
   Step          Temp          PotEng         KinEng         TotEng         Press          Volume           Lx             Ly             Lz      
         0   0             -1360.419       0             -1360.419      -163029.23      9910.6658      15.188654      26.30752       24.802968    
       300   0             -1881.6249      0             -1881.6249     -25001.305      9910.6658      15.188654      26.30752       24.802968    
Loop time of 4.78353 on 8 procs for 300 steps with 432 atoms

92.1% CPU use with 1 MPI tasks x 8 OpenMP threads

Minimization stats:
  Stopping criterion = energy tolerance
  Energy initial, next-to-last, final = 
     -1360.41899454796  -1881.62475833576  -1881.62486883165
  Force two-norm initial, final = 9.6154817 1.6373703
  Force max component initial, final = 1.3034606 0.6164055
  Final line search alpha, max atom move = 0.080810923 0.049812297
  Iterations, force evaluations = 300 660

MPI task timing breakdown:
Section |  min time  |  avg time  |  max time  |%varavg| %total
---------------------------------------------------------------
Pair    | 4.5127     | 4.5127     | 4.5127     |   0.0 | 94.34
Neigh   | 0.011618   | 0.011618   | 0.011618   |   0.0 |  0.24
Comm    | 0.005184   | 0.005184   | 0.005184   |   0.0 |  0.11
Output  | 0          | 0          | 0          |   0.0 |  0.00
Modify  | 0.24459    | 0.24459    | 0.24459    |   0.0 |  5.11
Other   |            | 0.009465   |            |       |  0.20

Nlocal:            432 ave         432 max         432 min
Histogram: 1 0 0 0 0 0 0 0 0 0
Nghost:           2167 ave        2167 max        2167 min
Histogram: 1 0 0 0 0 0 0 0 0 0
Neighs:          28137 ave       28137 max       28137 min
Histogram: 1 0 0 0 0 0 0 0 0 0
FullNghs:        56274 ave       56274 max       56274 min
Histogram: 1 0 0 0 0 0 0 0 0 0

Total # of neighbors = 56274
Ave neighs/atom = 130.26389
Neighbor list builds = 14
Dangerous builds = 0
Minimized PE/atom: -4.3556131222955 eV/atom
=== STAGE 2: NPT Equilibration at 200 K ===
No /omp style for force computation currently active
Setting up Verlet run ...
  Unit style    : metal
  Current step  : 0
  Time step     : 0.002
Per MPI rank memory allocation (min/avg/max) = 18.76 | 18.76 | 18.76 Mbytes
   Step          Temp          PotEng         KinEng         TotEng         Press          Volume           Lx             Ly             Lz      
         0   200           -1881.6249      11.142224     -1870.4826     -23800.456      9910.6658      15.188654      26.30752       24.802968    
       500   232.74899     -1890.6541      12.966708     -1877.6874      57.882494      8318.6748      14.327477      24.815918      23.396672    
      1000   211.39106     -1900.6635      11.776833     -1888.8867      1328.6148      8045.1814      14.168709      24.540924      23.137405    
      1500   194.97223     -1904.2328      10.862122     -1893.3707     -2235.4865      7969.0718      14.123887      24.463291      23.064212    
      2000   196.13295     -1904.3143      10.926787     -1893.3875     -1372.1081      7919.3001      14.094422      24.412255      23.016095    
      2500   185.508       -1907.025       10.334859     -1896.6901     -1130.5846      7864.0369      14.06156       24.355337      22.962432    
      3000   205.0027      -1909.1234      11.42093      -1897.7025      1.7635226      7777.2283      14.009628      24.265388      22.877628    
      3500   211.69933     -1910.7544      11.794008     -1898.9604      300.52719      7457.1407      13.814731      23.927817      22.559362    
      4000   198.69742     -1912.9466      11.069656     -1901.8769     -633.2652       7442.6929      13.805804      23.912354      22.544783    
      4500   200.11267     -1915.061       11.148502     -1903.9125     -2204.2913      7309.8122      13.723148      23.769189      22.409807    
      5000   206.94121     -1915.1254      11.528927     -1903.5965     -1686.1478      7316.0496      13.72705       23.775948      22.416179    
      5500   209.70186     -1916.7193      11.682726     -1905.0365     -1636.6575      7277.891       13.703143      23.73454       22.377138    
      6000   193.58609     -1916.594       10.784898     -1905.8091     -1253.9359      7263.6758      13.694215      23.719077      22.36256     
      6500   197.11406     -1917.1752      10.981446     -1906.1937     -231.94574      7286.2274      13.708373      23.743598      22.385679    
      7000   195.65501     -1917.3907      10.90016      -1906.4905      1833.4752      7245.9277      13.683053      23.699743      22.344332    
      7500   189.44766     -1915.9778      10.554342     -1905.4234      2380.9715      7206.2524      13.658033      23.656407      22.303475    
      8000   209.50196     -1917.1279      11.671589     -1905.4563     -817.18267      7213.2874      13.662476      23.664103      22.31073     
      8500   191.60848     -1919.2877      10.674723     -1908.613      -16.8667        7068.8297      13.570656      23.505066      22.160788    
      9000   207.71326     -1921.2683      11.571939     -1909.6963     -3277.4375      7021.0337      13.540001      23.451969      22.110729    
      9500   201.63401     -1921.8603      11.233257     -1910.6271     -1759.5264      6893.0857      13.457247      23.308636      21.975593    
     10000   205.27201     -1925.3848      11.435934     -1913.9488      841.57114      6718.9493      13.342958      23.110681      21.788959    
     10500   372.8639      -1945.5484      20.772666     -1924.7757     -6008.7034      6026.1369      12.867613      22.28736       21.012724    
     11000   283.23337     -2035.2426      15.779249     -2019.4634     -4386.437       5262.733       12.299538      21.303424      20.085061    
     11500   206.69678     -2045.7027      11.51531      -2034.1874      2812.7558      5214.4428      12.261802      21.238064      20.023439    
     12000   190.20513     -2049.7146      10.596541     -2039.118      -3886.2893      5230.603       12.274456      21.259982      20.044103    
     12500   190.82904     -2049.0437      10.6313       -2038.4124      3196.538       5207.8421      12.256626      21.229099      20.014987    
     13000   202.27904     -2048.9271      11.269192     -2037.6579     -2088.9658      5226.1315      12.270957      21.253922      20.038389    
     13500   195.88203     -2049.1404      10.912808     -2038.2276      2483.9602      5211.3129      12.259348      21.233814      20.019432    
     14000   210.5777      -2050.9973      11.73152      -2039.2658     -2020.0577      5221.5558      12.267375      21.247717      20.03254     
     14500   195.01737     -2051.113       10.864637     -2040.2484      3740.1312      5200.7598      12.251068      21.219471      20.00591     
     15000   203.32981     -2051.6655      11.327732     -2040.3378     -322.99072      5217.3651      12.264092      21.242031      20.027179    
     15500   204.8301      -2053.4114      11.411315     -2042.0001      554.56677      5222.9669      12.26848       21.249631      20.034344    
     16000   217.33104     -2055.1663      12.107756     -2043.0585     -910.17401      5225.2987      12.270306      21.252793      20.037325    
     16500   196.92589     -2055.8133      10.970962     -2044.8423      1257.7154      5215.943       12.262978      21.240101      20.025359    
     17000   189.33519     -2056.2194      10.548076     -2045.6713     -828.02155      5221.4864      12.267321      21.247623      20.032451    
     17500   197.8855      -2055.7925      11.024423     -2044.7681      268.92676      5221.4784      12.267314      21.247612      20.032441    
     18000   208.55892     -2055.561       11.619052     -2043.942       4370.0577      5203.6197      12.253313      21.22336       20.009576    
     18500   203.00095     -2055.3003      11.309411     -2043.9909     -3574.0096      5232.072       12.275605      21.261972      20.045979    
     19000   209.99409     -2056.2678      11.699007     -2044.5688      1180.311       5215.0054      12.262243      21.238828      20.024159    
     19500   187.95976     -2055.7866      10.471449     -2045.3151      865.63176      5215.5157      12.262643      21.239521      20.024812    
     20000   194.69602     -2055.8084      10.846734     -2044.9616     -2769.3804      5229.2573      12.273403      21.258158      20.042384    
Loop time of 243.889 on 8 procs for 20000 steps with 432 atoms

Performance: 14.170 ns/day, 1.694 hours/ns, 82.005 timesteps/s, 35.426 katom-step/s
90.5% CPU use with 1 MPI tasks x 8 OpenMP threads

MPI task timing breakdown:
Section |  min time  |  avg time  |  max time  |%varavg| %total
---------------------------------------------------------------
Pair    | 217.7      | 217.7      | 217.7      |   0.0 | 89.26
Neigh   | 0.032219   | 0.032219   | 0.032219   |   0.0 |  0.01
Comm    | 0.15739    | 0.15739    | 0.15739    |   0.0 |  0.06
Output  | 0.00298    | 0.00298    | 0.00298    |   0.0 |  0.00
Modify  | 25.967     | 25.967     | 25.967     |   0.0 | 10.65
Other   |            | 0.0293     |            |       |  0.01

Nlocal:            432 ave         432 max         432 min
Histogram: 1 0 0 0 0 0 0 0 0 0
Nghost:           2741 ave        2741 max        2741 min
Histogram: 1 0 0 0 0 0 0 0 0 0
Neighs:          37398 ave       37398 max       37398 min
Histogram: 1 0 0 0 0 0 0 0 0 0
FullNghs:        74796 ave       74796 max       74796 min
Histogram: 1 0 0 0 0 0 0 0 0 0

Total # of neighbors = 74796
Ave neighs/atom = 173.13889
Neighbor list builds = 38
Dangerous builds = 0
=== STAGE 3: NPT Production at 200 K ===
No /omp style for force computation currently active
Setting up Verlet run ...
  Unit style    : metal
  Current step  : 0
  Time step     : 0.001
Per MPI rank memory allocation (min/avg/max) = 18.99 | 18.99 | 18.99 Mbytes
   Step          Temp          PotEng         KinEng         TotEng         Press          Volume           Lx             Ly             Lz      
         0   194.69602     -2055.8084      10.846734     -2044.9616     -2769.3804      5229.2573      12.273403      21.258158      20.042384    
       500   195.32426     -2055.9051      10.881734     -2045.0234     -603.17899      5222.5762      12.268174      21.249101      20.033844    
      1000   195.07095     -2055.4643      10.867622     -2044.5967      5381.9904      5202.6721      12.252569      21.222072      20.008361    
      1500   202.14085     -2055.4286      11.261494     -2044.1671     -3825.7042      5234.272       12.277325      21.264951      20.048788    
      2000   194.47292     -2055.4252      10.834305     -2044.5909     -2145.7934      5229.5639      12.273643      21.258574      20.042775    
      2500   204.17599     -2055.9274      11.374874     -2044.5525      4126.0974      5210.7399      12.258899      21.233036      20.018698    
      3000   196.81217     -2055.0242      10.964627     -2044.0596     -1711.3466      5227.6985      12.272184      21.256046      20.040392    
      3500   210.42092     -2055.411       11.722785     -2043.6882     -2403.5961      5228.51        12.272819      21.257145      20.041429    
      4000   205.47769     -2055.5956      11.447393     -2044.1482     -75.833662      5218.716       12.265151      21.243864      20.028907    
      4500   198.99162     -2056.0791      11.086046     -2044.993       171.30355      5219.29        12.2656        21.244643      20.029642    
      5000   198.58206     -2055.6677      11.063229     -2044.6044      2237.0013      5216.1087      12.263108      21.240326      20.025571    
      5500   208.88793     -2055.3999      11.637381     -2043.7625     -776.64766      5219.888       12.266069      21.245454      20.030407    
      6000   200.83461     -2055.0186      11.188721     -2043.8298     -6796.2066      5242.6529      12.283875      21.276295      20.059483    
      6500   196.57354     -2056.0157      10.951333     -2045.0643      5182.9         5200.1999      12.250628      21.21871       20.005192    
      7000   196.01953     -2055.8736      10.920468     -2044.9531     -728.71169      5222.8778      12.26841       21.24951       20.03423     
      7500   204.05751     -2056.0406      11.368273     -2044.6724      1307.6018      5217.4145      12.264131      21.242098      20.027242    
      8000   206.3321      -2055.3764      11.494993     -2043.8814      3890.8725      5206.8174      12.255822      21.227707      20.013674    
      8500   211.77073     -2056.0947      11.797985     -2044.2967     -881.26109      5222.5921      12.268187      21.249122      20.033865    
      9000   206.35035     -2056.2185      11.496009     -2044.7225     -1227.7422      5223.125       12.268604      21.249845      20.034546    
      9500   200.45059     -2055.9084      11.167327     -2044.7411     -1052.2955      5220.0234      12.266175      21.245638      20.03058     
     10000   205.61886     -2054.9591      11.455257     -2043.5038     -394.76401      5222.9178      12.268442      21.249564      20.034281    
     10500   206.68888     -2054.8621      11.51487      -2043.3472      1804.3062      5215.2778      12.262457      21.239198      20.024508    
     11000   195.02766     -2055.8392      10.86521      -2044.974      -1523.6332      5224.4392      12.269633      21.251627      20.036226    
     11500   194.72751     -2056.0933      10.848488     -2045.2448     -3377.2872      5229.3141      12.273448      21.258235      20.042456    
     12000   212.92153     -2055.8046      11.862097     -2043.9425      5159.7333      5203.4631      12.25319       21.223147      20.009375    
     12500   206.98091     -2055.7804      11.531139     -2044.2493      111.263        5221.3795      12.267237      21.247478      20.032314    
     13000   197.78299     -2056.05        11.018712     -2045.0313     -4676.8185      5231.2414      12.274955      21.260846      20.044918    
     13500   191.00717     -2055.6559      10.641224     -2045.0147      2165.285       5211.2738      12.259318      21.233761      20.019382    
     14000   193.60497     -2056.1477      10.78595      -2045.3617      3724.5108      5206.222       12.255355      21.226898      20.012911    
     14500   185.84841     -2054.904       10.353823     -2044.5502     -1218.162       5226.059       12.270901      21.253823      20.038297    
     15000   195.59716     -2054.6872      10.896937     -2043.7902     -482.92685      5223.5168      12.268911      21.250376      20.035047    
     15500   205.86158     -2055.0469      11.468779     -2043.5782      4461.1181      5206.7212      12.255747      21.227576      20.013551    
     16000   200.82401     -2056.1388      11.188131     -2044.9507     -4539.0664      5234.7683      12.277713      21.265623      20.049422    
     16500   196.85128     -2055.8994      10.966806     -2044.9326     -3302.1175      5229.9249      12.273926      21.259063      20.043237    
     17000   206.12367     -2055.1403      11.483381     -2043.6569      385.36747      5222.6027      12.268195      21.249137      20.033878    
     17500   204.51923     -2055.0603      11.393996     -2043.6663      933.30708      5218.4619      12.264952      21.243519      20.028582    
     18000   202.64915     -2055.6199      11.289812     -2044.3301     -773.17229      5222.6628      12.268242      21.249218      20.033955    
     18500   190.66561     -2055.8058      10.622195     -2045.1836     -1307.3606      5225.2664      12.27028       21.252749      20.037284    
     19000   209.4069      -2056.3235      11.666293     -2044.6572      1631.5297      5213.0414      12.260704      21.236162      20.021645    
     19500   211.78589     -2056.013       11.79883      -2044.2142      4217.9757      5207.6103      12.256444      21.228784      20.01469     
     20000   205.23333     -2055.8527      11.433779     -2044.4189     -3582.3778      5228.0058      12.272424      21.256462      20.040785    
     20500   196.67096     -2055.6995      10.95676      -2044.7427     -2312.344       5227.5139      12.272039      21.255795      20.040156    
     21000   208.10452     -2056.1715      11.593737     -2044.5777      3204.1104      5208.7702      12.257354      21.23036       20.016176    
     21500   197.73776     -2056.348       11.016192     -2045.3318      1948.1666      5214.2565      12.261656      21.237811      20.023201    
     22000   200.73961     -2056.6375      11.183429     -2045.454      -2157.2943      5224.6777      12.269819      21.251951      20.036531    
     22500   203.1436      -2055.5952      11.317358     -2044.2778     -2264.8578      5227.469       12.272004      21.255735      20.040099    
     23000   199.72445     -2055.8336      11.126873     -2044.7068      1451.3477      5217.0085      12.263813      21.241547      20.026723    
     23500   184.01331     -2055.9042      10.251588     -2045.6526      3316.4222      5212.8218      12.260531      21.235863      20.021364    
     24000   194.9654      -2056.1662      10.861742     -2045.3045      331.34699      5218.2565      12.264791      21.243241      20.028319    
     24500   199.63647     -2055.4395      11.121972     -2044.3175     -869.69765      5218.6534      12.265102      21.243779      20.028827    
     25000   191.9301      -2055.4153      10.692641     -2044.7226      2829.3623      5206.8472      12.255846      21.227747      20.013712    
     25500   182.81897     -2055.6487      10.18505      -2045.4636     -4440.3169      5237.2424      12.279647      21.268973      20.05258     
     26000   191.66702     -2056.6651      10.677985     -2045.9872      3791.8993      5205.5466      12.254825      21.22598       20.012045    
     26500   190.79189     -2055.4618      10.62923      -2044.8325      1403.9639      5216.5193      12.26343       21.240883      20.026097    
     27000   197.53843     -2055.1657      11.005088     -2044.1606     -1432.7844      5226.5271      12.271267      21.254458      20.038895    
     27500   208.29831     -2055.5601      11.604533     -2043.9555      4145.2131      5208.2385      12.256937      21.229638      20.015494    
     28000   201.16766     -2055.983       11.207276     -2044.7757      1117.2242      5214.7788      12.262066      21.23852       20.023869    
     28500   193.40872     -2055.7411      10.775017     -2044.9661     -4768.8258      5231.6441      12.27527       21.261392      20.045433    
     29000   197.67211     -2056.1567      11.012535     -2045.1441     -1032.1871      5220.5896      12.266618      21.246406      20.031304    
     29500   201.80004     -2055.6878      11.242507     -2044.4453      14.271808      5221.1755      12.267077      21.247201      20.032053    
     30000   204.14492     -2056.746       11.373142     -2045.3729      1207.4161      5212.5438      12.260313      21.235486      20.021008    
     30500   190.47275     -2057.1416      10.611451     -2046.5301      683.22605      5210.4342      12.258659      21.232621      20.018307    
     31000   192.74721     -2056.5679      10.738164     -2045.8298     -2797.0634      5222.0506      12.267763      21.248388      20.033172    
     31500   208.43756     -2056.1713      11.61229      -2044.559       2281.5432      5211.0679      12.259156      21.233481      20.019118    
     32000   216.19939     -2057.1285      12.044711     -2045.0837      211.45779      5213.3336      12.260933      21.236558      20.022019    
     32500   198.92779     -2057.1901      11.082491     -2046.1076     -3372.0174      5227.0393      12.271668      21.255152      20.03955     
     33000   188.27168     -2056.8522      10.488826     -2046.3634      3368.0067      5199.9745      12.250451      21.218403      20.004903    
     33500   194.47581     -2056.5541      10.834466     -2045.7196     -681.46276      5218.1773      12.264729      21.243133      20.028218    
     34000   202.62264     -2056.9688      11.288334     -2045.6805     -1797.8543      5219.8691      12.266054      21.245429      20.030382    
     34500   197.91816     -2056.1224      11.026243     -2045.0962      1427.2058      5210.1208      12.258413      21.232195      20.017905    
     35000   194.12097     -2056.7045      10.814697     -2045.8898      1255.2461      5208.647       12.257258      21.230193      20.016018    
     35500   193.4743      -2056.7544      10.77867      -2045.9757     -1185.2447      5220.2023      12.266315      21.245881      20.030808    
     36000   204.63455     -2056.2519      11.400421     -2044.8515     -636.82401      5220.1753      12.266294      21.245844      20.030774    
     36500   210.7611      -2057.1411      11.741738     -2045.3994      6719.5198      5194.1732      12.245893      21.21051       19.99746     
     37000   190.12428     -2057.58        10.592037     -2046.988      -1366.5843      5213.7843      12.261286      21.23717       20.022596    
     37500   200.50995     -2057.0766      11.170635     -2045.9059     -936.18164      5222.435       12.268064      21.248909      20.033664    
     38000   213.43135     -2056.5812      11.8905       -2044.6907      3276.7102      5209.4297      12.257871      21.231256      20.01702     
     38500   202.50933     -2056.4491      11.282022     -2045.167       32.220727      5217.4028      12.264122      21.242082      20.027227    
     39000   177.79528     -2057.3827      9.9051744     -2047.4775     -5102.9275      5227.0511      12.271677      21.255168      20.039565    
     39500   191.5345      -2056.6665      10.670602     -2045.9959     -156.95355      5213.2099      12.260836      21.23639       20.021861    
     40000   201.37024     -2056.8061      11.218562     -2045.5875      4313.2437      5201.4248      12.25159       21.220376      20.006762    
     40500   208.46739     -2056.5973      11.613952     -2044.9834     -3.3938724      5216.2018      12.263181      21.240452      20.02569     
     41000   201.83437     -2056.8281      11.244419     -2045.5837     -3069.3054      5227.83        12.272287      21.256224      20.04056     
     41500   200.32944     -2056.932       11.160578     -2045.7714      2597.1306      5209.2516      12.257732      21.231014      20.016792    
     42000   197.41436     -2056.6076      10.998176     -2045.6094     -3629.284       5225.3944      12.27038       21.252922      20.037447    
     42500   204.59303     -2056.3184      11.398107     -2044.9203      3467.1641      5206.6482      12.255689      21.227477      20.013457    
     43000   202.09476     -2056.8133      11.258926     -2045.5544      763.54196      5216.6711      12.263549      21.241089      20.026291    
     43500   199.86997     -2057.0261      11.134981     -2045.8911     -2420.1751      5221.6184      12.267424      21.247802      20.03262     
     44000   200.70791     -2057.2811      11.181663     -2046.0994      303.05884      5214.4052      12.261773      21.238013      20.023391    
     44500   208.24216     -2056.5058      11.601405     -2044.9044      2609.1022      5207.443       12.256313      21.228557      20.014475    
     45000   201.51        -2055.9948      11.226348     -2044.7685     -8545.7204      5245.3892      12.286011      21.279996      20.062972    
     45500   203.42002     -2056.9663      11.332758     -2045.6335     -2571.4472      5221.7536      12.26753       21.247985      20.032793    
     46000   192.33876     -2057.0683      10.715408     -2046.3529      2853.1027      5204.3828      12.253912      21.224398      20.010554    
     46500   207.6473      -2057.4545      11.568264     -2045.8862     -229.94447      5217.3456      12.264077      21.242005      20.027154    
     47000   211.59937     -2055.6546      11.788438     -2043.8662      1110.0619      5212.9447      12.260628      21.23603       20.021521    
     47500   195.21345     -2056.7912      10.87556      -2045.9157      4359.2051      5204.2084      12.253775      21.224161      20.01033     
     48000   208.55821     -2057.3402      11.619012     -2045.7212      1804.5093      5207.5973      12.256434      21.228767      20.014673    
     48500   214.02349     -2057.1496      11.923489     -2045.2261     -6314.0575      5234.484       12.277491      21.265238      20.049059    
     49000   209.72453     -2056.1105      11.683989     -2044.4265      3107.6641      5205.4997      12.254788      21.225916      20.011985    
     49500   202.24828     -2056.6283      11.267479     -2045.3608     -1349.3077      5218.2002      12.264747      21.243164      20.028247    
     50000   202.87942     -2057.5361      11.30264      -2046.2335     -5894.2765      5232.9712      12.276308      21.26319       20.047127    
Loop time of 670.656 on 8 procs for 50000 steps with 432 atoms

Performance: 6.441 ns/day, 3.726 hours/ns, 74.554 timesteps/s, 32.207 katom-step/s
90.9% CPU use with 1 MPI tasks x 8 OpenMP threads

MPI task timing breakdown:
Section |  min time  |  avg time  |  max time  |%varavg| %total
---------------------------------------------------------------
Pair    | 605.43     | 605.43     | 605.43     |   0.0 | 90.27
Neigh   | 0.000882   | 0.000882   | 0.000882   |   0.0 |  0.00
Comm    | 0.41513    | 0.41513    | 0.41513    |   0.0 |  0.06
Output  | 0.007231   | 0.007231   | 0.007231   |   0.0 |  0.00
Modify  | 64.735     | 64.735     | 64.735     |   0.0 |  9.65
Other   |            | 0.0676     |            |       |  0.01

Nlocal:            432 ave         432 max         432 min
Histogram: 1 0 0 0 0 0 0 0 0 0
Nghost:           2755 ave        2755 max        2755 min
Histogram: 1 0 0 0 0 0 0 0 0 0
Neighs:          37446 ave       37446 max       37446 min
Histogram: 1 0 0 0 0 0 0 0 0 0
FullNghs:        74892 ave       74892 max       74892 min
Histogram: 1 0 0 0 0 0 0 0 0 0

Total # of neighbors = 74892
Ave neighs/atom = 173.36111
Neighbor list builds = 1
Dangerous builds = 0

=== FINAL RESULTS: HCP at 200 K ===
Atoms: 432 | PE/atom: -4.76095153195643 eV/atom
WARNING: Detected non-ASCII characters in input. Will try to continue by replacing with ASCII equivalents where known. (src/input.cpp:479)
Volume: 5232.97115061754 …³ | Area: 261.033467268047 ²
==========================================
HCP 200 432 -4.76095153195643 5232.97115061754 12.2763081820817 21.2631895026102 20.0471273104761 261.033467268047
Simulation complete!
Total wall time: 0:15:19
