LAMMPS (10 Sep 2025)
  using 8 OpenMP thread(s) per MPI task
Loaded 1 plugins from C:\Users\J.Shiva\AppData\Local\LAMMPS 64-bit 10Sep2025\plugins
using multi-threaded neighbor list subroutines
Reading data file ...
  orthogonal box = (0 0 0) to (15.188654 26.30752 24.802968)
  1 by 1 by 1 MPI processor grid
  reading atoms ...
  432 atoms
  read_data CPU = 0.002 seconds
=== STAGE 1: Energy Minimization ===
Switching to 'neigh_modify every 1 delay 0 check yes' setting during minimization
No /omp style for force computation currently active
Neighbor list info ...
  update: every = 1 steps, delay = 0 steps, check = yes
  max neighbors/atom: 4000, page size: 100000
  master list distance cutoff = 8
  ghost atom cutoff = 8
  binsize = 4, bins = 4 7 7
  2 neighbor lists, perpetual/occasional/extra = 2 0 0
  (1) pair meam, perpetual
      attributes: full, newton on, omp
      pair build: full/bin/atomonly/omp
      stencil: full/bin/3d
      bin: standard
  (2) pair meam, perpetual, half/full from (1)
      attributes: half, newton on, omp
      pair build: halffull/newton/omp
      stencil: none
      bin: none
Setting up cg style minimization ...
  Unit style    : metal
  Current step  : 0
Per MPI rank memory allocation (min/avg/max) = 19.42 | 19.42 | 19.42 Mbytes
   Step          Temp          PotEng         KinEng         TotEng         Press          Volume           Lx             Ly             Lz      
         0   0             -1361.2549      0             -1361.2549     -82507.024      9910.6658      15.188654      26.30752       24.802968    
       385   0             -1892.4161      0             -1892.4161     -20377.381      9910.6658      15.188654      26.30752       24.802968    
Loop time of 4.89678 on 8 procs for 385 steps with 432 atoms

97.0% CPU use with 1 MPI tasks x 8 OpenMP threads

Minimization stats:
  Stopping criterion = energy tolerance
  Energy initial, next-to-last, final = 
     -1361.25488049127  -1892.41445888957  -1892.41608187195
  Force two-norm initial, final = 23.490112 0.16016541
  Force max component initial, final = 2.114729 0.038830622
  Final line search alpha, max atom move = 1 0.038830622
  Iterations, force evaluations = 385 715

MPI task timing breakdown:
Section |  min time  |  avg time  |  max time  |%varavg| %total
---------------------------------------------------------------
Pair    | 4.8173     | 4.8173     | 4.8173     |   0.0 | 98.38
Neigh   | 0.013554   | 0.013554   | 0.013554   |   0.0 |  0.28
Comm    | 0.003822   | 0.003822   | 0.003822   |   0.0 |  0.08
Output  | 0          | 0          | 0          |   0.0 |  0.00
Modify  | 0.056242   | 0.056242   | 0.056242   |   0.0 |  1.15
Other   |            | 0.005856   |            |       |  0.12

Nlocal:            432 ave         432 max         432 min
Histogram: 1 0 0 0 0 0 0 0 0 0
Nghost:           1545 ave        1545 max        1545 min
Histogram: 1 0 0 0 0 0 0 0 0 0
Neighs:          28213 ave       28213 max       28213 min
Histogram: 1 0 0 0 0 0 0 0 0 0
FullNghs:        56426 ave       56426 max       56426 min
Histogram: 1 0 0 0 0 0 0 0 0 0

Total # of neighbors = 56426
Ave neighs/atom = 130.61574
Neighbor list builds = 16
Dangerous builds = 0
Minimized PE/atom: -4.38059278211099 eV/atom
=== STAGE 2: NPT Equilibration at 650 K ===
No /omp style for force computation currently active
Setting up Verlet run ...
  Unit style    : metal
  Current step  : 0
  Time step     : 0.002
Per MPI rank memory allocation (min/avg/max) = 18.47 | 18.47 | 18.47 Mbytes
   Step          Temp          PotEng         KinEng         TotEng         Press          Volume           Lx             Ly             Lz      
         0   650           -1892.4161      36.21223      -1856.2039     -16474.624      9910.6658      15.188654      26.30752       24.802968    
       500   689.79782     -1865.8826      38.429411     -1827.4532      1444.0646      8454.5136      14.405043      24.950266      23.523336    
      1000   622.69497     -1878.047       34.691036     -1843.356      -2047.2787      7982.9041      14.132055      24.477437      23.077549    
      1500   676.78997     -1891.7578      37.704729     -1854.0531      2489.3739      7562.181       13.879293      24.039641      22.664791    
      2000   662.50382     -1900.033       36.908831     -1863.1242     -3312.6412      7256.5746      13.689751      23.711345      22.35527     
      2500   694.50537     -1899.6865      38.691674     -1860.9948      1332.3629      7261.3224      13.692736      23.716515      22.360145    
      3000   644.54672     -1904.6321      35.908421     -1868.7237     -1965.1436      7183.0597      13.643365      23.631001      22.279522    
      3500   711.62899     -1909.6725      39.64565      -1870.0268     -4597.0035      6858.968       13.435008      23.270116      21.939276    
      4000   618.46111     -1913.2284      34.455163     -1878.7732     -4513.5347      6491.7554      13.190838      22.847201      21.540548    
      4500   921.52905     -1993.2673      51.339418     -1941.9279     -5383.0412      5414.934       12.416982      21.506844      20.276847    
      5000   606.96409     -2023.7167      33.814651     -1989.902      -615.83049      5304.3004      12.331835      21.359365      20.137802    
      5500   670.33585     -2026.0805      37.345163     -1988.7354      1766.0991      5298.8939      12.327644      21.352105      20.130958    
      6000   674.99248     -2026.5142      37.604589     -1988.9096      4293.6321      5291.7833      12.322127      21.34255       20.121949    
      6500   668.93624     -2029.369       37.267189     -1992.1018     -1749.5574      5299.398       12.328035      21.352782      20.131596    
      7000   622.18547     -2029.0029      34.662651     -1994.3403     -1606.1222      5295.0774      12.324683      21.346978      20.126124    
      7500   637.78442     -2030.1137      35.531686     -1994.5821     -2165.6172      5298.5132      12.327349      21.351594      20.130476    
      8000   649.15863     -2027.9776      36.165356     -1991.8122     -5887.4964      5312.7443      12.338375      21.370693      20.148482    
      8500   651.31152     -2026.243       36.285296     -1989.9577     -4356.0932      5317.7213      12.342227      21.377364      20.154772    
      9000   662.28689     -2030.7088      36.896746     -1993.812      -483.71589      5305.9034      12.333077      21.361516      20.139831    
      9500   598.91206     -2030.0384      33.366063     -1996.6723     -1451.8041      5298.2968      12.327181      21.351303      20.130202    
     10000   642.22421     -2032.1656      35.779032     -1996.3865     -551.65192      5296.1431      12.32551       21.34841       20.127474    
     10500   648.83753     -2030.0427      36.147467     -1993.8952     -3783.2777      5317.817       12.342301      21.377492      20.154893    
     11000   686.39921     -2031.705       38.24007      -1993.4649     -5259.7527      5321.0496      12.344801      21.381823      20.158976    
     11500   681.34233     -2034.0364      37.958346     -1996.078      -10806.961      5333.0718      12.354091      21.397914      20.174147    
     12000   634.27622     -2034.1717      35.33624      -1998.8355     -7506.6839      5317.6618      12.342181      21.377284      20.154697    
     12500   625.18601     -2035.6101      34.829814     -2000.7803     -6489.092       5310.0368      12.336279      21.367062      20.145059    
     13000   665.60851     -2033.7921      37.081797     -1996.7103     -6074.3875      5316.2544      12.341092      21.375398      20.152919    
     13500   640.88702     -2031.3199      35.704535     -1995.6154     -3342.4503      5310.021       12.336267      21.367041      20.145039    
     14000   663.74752     -2030.9354      36.978119     -1993.9573      1363.144       5304.0459      12.331638      21.359023      20.13748     
     14500   661.87858     -2032.7328      36.873999     -1995.8588      915.80198      5295.6524      12.32513       21.347751      20.126852    
     15000   629.83102     -2034.337       35.088593     -1999.2484     -1525.8603      5306.3273      12.333406      21.362085      20.140367    
     15500   656.54452     -2033.9917      36.576832     -1997.4148     -1898.0013      5308.028       12.334723      21.364367      20.142518    
     16000   659.82393     -2033.3681      36.759532     -1996.6086     -3081.4655      5303.66        12.331339      21.358505      20.136992    
     16500   666.676       -2033.308       37.141268     -1996.1667     -3729.6266      5311.0507      12.337064      21.368422      20.146341    
     17000   635.86502     -2035.3808      35.424754     -1999.956      -6479.8838      5314.909       12.340051      21.373595      20.151219    
     17500   647.19519     -2036.5464      36.05597      -2000.4905     -9316.4035      5327.4903      12.34978       21.390447      20.167106    
     18000   670.95239     -2030.958       37.379511     -1993.5785     -12864.77       5352.2543      12.368886      21.423539      20.198306    
     18500   646.93534     -2032.4889      36.041494     -1996.4474     -10244.379      5338.7962      12.35851       21.405567      20.181362    
     19000   632.16303     -2033.926       35.218512     -1998.7075     -8166.6256      5332.4146      12.353584      21.397035      20.173318    
     19500   610.50924     -2035.2198      34.012155     -2001.2076     -7408.9398      5323.4583      12.346664      21.385049      20.162017    
     20000   665.32089     -2036.3874      37.065773     -1999.3217     -9163.2752      5321.2644      12.344967      21.382111      20.159247    
Loop time of 321.198 on 8 procs for 20000 steps with 432 atoms

Performance: 10.760 ns/day, 2.231 hours/ns, 62.267 timesteps/s, 26.899 katom-step/s
92.8% CPU use with 1 MPI tasks x 8 OpenMP threads

MPI task timing breakdown:
Section |  min time  |  avg time  |  max time  |%varavg| %total
---------------------------------------------------------------
Pair    | 302.7      | 302.7      | 302.7      |   0.0 | 94.24
Neigh   | 0.057993   | 0.057993   | 0.057993   |   0.0 |  0.02
Comm    | 0.19425    | 0.19425    | 0.19425    |   0.0 |  0.06
Output  | 0.003966   | 0.003966   | 0.003966   |   0.0 |  0.00
Modify  | 18.207     | 18.207     | 18.207     |   0.0 |  5.67
Other   |            | 0.03681    |            |       |  0.01

Nlocal:            432 ave         432 max         432 min
Histogram: 1 0 0 0 0 0 0 0 0 0
Nghost:           2659 ave        2659 max        2659 min
Histogram: 1 0 0 0 0 0 0 0 0 0
Neighs:          36842 ave       36842 max       36842 min
Histogram: 1 0 0 0 0 0 0 0 0 0
FullNghs:        73684 ave       73684 max       73684 min
Histogram: 1 0 0 0 0 0 0 0 0 0

Total # of neighbors = 73684
Ave neighs/atom = 170.56481
Neighbor list builds = 51
Dangerous builds = 0
=== STAGE 3: NPT Production at 650 K ===
No /omp style for force computation currently active
Setting up Verlet run ...
  Unit style    : metal
  Current step  : 0
  Time step     : 0.001
Per MPI rank memory allocation (min/avg/max) = 18.88 | 18.88 | 18.88 Mbytes
   Step          Temp          PotEng         KinEng         TotEng         Press          Volume           Lx             Ly             Lz      
         0   665.32089     -2036.3874      37.065773     -1999.3217     -9163.2752      5321.2644      12.344967      21.382111      20.159247    
       500   669.64478     -2036.8021      37.306662     -1999.4954     -7088.2502      5321.019       12.344778      21.381782      20.158937    
      1000   615.00564     -2039.395       34.262654     -2005.1323     -3852.8354      5299.3339      12.327985      21.352696      20.131515    
      1500   659.01502     -2036.9267      36.714466     -2000.2122     -2594.1778      5302.1341      12.330156      21.356457      20.13506     
      2000   637.44833     -2035.1981      35.512962     -1999.6851      391.72413      5297.7443      12.326752      21.350561      20.129502    
      2500   641.43493     -2038.0448      35.73506      -2002.3098      1282.9785      5287.0226      12.318431      21.336148      20.115913    
      3000   654.17017     -2036.8331      36.444554     -2000.3885      3498.026       5282.2348      12.314711      21.329706      20.109839    
      3500   685.42229     -2037.1518      38.185645     -1998.9662      4345.3605      5278.8053      12.312046      21.325089      20.105486    
      4000   715.27859     -2035.6678      39.848973     -1995.8188      5888.8764      5278.482       12.311794      21.324653      20.105076    
      4500   662.36788     -2036.9615      36.901258     -2000.0602      11201.509      5261.1628      12.298314      21.301305      20.083063    
      5000   643.55579     -2036.0462      35.853215     -2000.193       10697.78       5261.6874      12.298723      21.302013      20.08373     
      5500   655.51083     -2038.3112      36.519244     -2001.7919      5143.5057      5272.0213      12.306769      21.315949      20.09687     
      6000   653.98651     -2035.3363      36.434323     -1998.902       2691.3213      5292.5237      12.322702      21.343546      20.122888    
      6500   626.96296     -2035.6684      34.92881      -2000.7396     -720.15451      5298.7424      12.327526      21.351902      20.130766    
      7000   633.03756     -2038.0861      35.267233     -2002.8189      554.47197      5286.6305      12.318126      21.335621      20.115416    
      7500   666.73349     -2037.1321      37.144471     -1999.9876     -3008.6591      5301.8413      12.329929      21.356063      20.13469     
      8000   652.67542     -2036.05        36.36128      -1999.6887     -21.139313      5296.9413      12.326129      21.349482      20.128485    
      8500   650.34899     -2038.5002      36.231672     -2002.2686      1243.6458      5291.89        12.32221       21.342694      20.122085    
      9000   619.55229     -2035.7782      34.515953     -2001.2623     -814.69131      5291.514       12.321918      21.342188      20.121608    
      9500   672.63447     -2035.1266      37.473221     -1997.6534     -2922.6526      5307.8066      12.334552      21.36407       20.142238    
     10000   641.80228     -2034.9799      35.755526     -1999.2244     -2216.0636      5303.8796      12.331509      21.3588        20.13727     
     10500   653.93263     -2037.3497      36.431321     -2000.9183     -1411.0845      5289.168       12.320097      21.339034      20.118634    
     11000   682.55226     -2035.596       38.025753     -1997.5703     -3130.908       5304.2614      12.331805      21.359312      20.137753    
     11500   640.48922     -2034.3484      35.682373     -1998.6661     -3756.8717      5316.8438      12.341548      21.376188      20.153663    
     12000   618.20939     -2034.913       34.441139     -2000.4719     -3917.7649      5314.8442      12.340001      21.373508      20.151137    
     12500   622.83809     -2037.1082      34.699009     -2002.4092     -4266.5445      5309.7531      12.336059      21.366681      20.1447      
     13000   587.22567     -2036.0367      32.715001     -2003.3217     -1158.6633      5298.8539      12.327613      21.352052      20.130907    
     13500   678.21149     -2037.4341      37.783923     -1999.6502     -3206.0899      5306.7636      12.333744      21.362671      20.140919    
     14000   674.43132     -2037.03        37.573326     -1999.4566     -1721.4419      5302.4991      12.330439      21.356947      20.135522    
     14500   664.62893     -2038.9836      37.027224     -2001.9563     -5559.1626      5305.4363      12.332715      21.360889      20.13924     
     15000   616.28494     -2039.0879      34.333926     -2004.754      -4132.4933      5298.5918      12.32741       21.3517        20.130575    
     15500   654.2173      -2036.4599      36.44718      -2000.0127     -5033.3348      5314.9228      12.340061      21.373613      20.151236    
     16000   660.05586     -2035.6217      36.772453     -1998.8493     -1583.2155      5306.2433      12.333341      21.361972      20.140261    
     16500   640.89493     -2036.4057      35.704976     -2000.7007     -1368.7917      5304.8687      12.332275      21.360128      20.138521    
     17000   657.37794     -2038.4914      36.623263     -2001.8681     -3470.0627      5304.715       12.332156      21.359921      20.138327    
     17500   641.68178     -2037.6361      35.748812     -2001.8873     -5320.677       5315.015       12.340133      21.373737      20.151353    
     18000   612.91072     -2035.3625      34.145944     -2001.2166     -1476.661       5310.2937      12.336478      21.367406      20.145384    
     18500   654.78423     -2035.6507      36.478765     -1999.1719      718.58024      5299.6953      12.328265      21.353182      20.131973    
     19000   657.55036     -2038.5591      36.632869     -2001.9263      135.10339      5289.874       12.320645      21.339983      20.119529    
     19500   623.57015     -2038.1939      34.739793     -2003.4541      3577.5397      5282.992       12.3153        21.330725      20.1108      
     20000   631.85638     -2037.7881      35.201428     -2002.5866      6812.7518      5269.8998      12.305118      21.31309       20.094174    
     20500   638.28987     -2037.1683      35.559845     -2001.6084      7355.1787      5272.0416      12.306785      21.315977      20.096896    
     21000   675.17081     -2038.095       37.614524     -2000.4804      3106.6052      5280.5272      12.313384      21.327407      20.107672    
     21500   700.23993     -2035.9462      39.011152     -1996.9351      2301.1626      5286.7878      12.318249      21.335832      20.115616    
     22000   636.80086     -2036.8256      35.476891     -2001.3487      2762.0335      5277.9597      12.311388      21.32395       20.104413    
     22500   661.99507     -2039.9251      36.880488     -2003.0446      3256.1629      5274.2829      12.308529      21.318997      20.099743    
     23000   642.49827     -2035.7402      35.7943       -1999.9459     -1207.7024      5296.2281      12.325576      21.348524      20.127582    
     23500   643.00028     -2037.3842      35.822267     -2001.5619     -2799.648       5303.7574      12.331414      21.358636      20.137115    
     24000   639.48594     -2038.2624      35.626479     -2002.6359      1253.6227      5283.9786      12.316066      21.332053      20.112052    
     24500   629.29369     -2040.0761      35.058658     -2005.0175      5125.8619      5270.2323      12.305377      21.313538      20.094596    
     25000   620.93387     -2037.2299      34.592923     -2002.6369      1712.8023      5289.2448      12.320157      21.339137      20.118731    
     25500   621.63134     -2036.3467      34.63178      -2001.715       4907.9602      5278.2586      12.311621      21.324352      20.104792    
     26000   610.306       -2039.3935      34.000832     -2005.3926      2629.9376      5281.6628      12.314267      21.328936      20.109114    
     26500   628.69052     -2039.7466      35.025055     -2004.7216      3189.2185      5278.6642      12.311936      21.324899      20.105307    
     27000   649.05842     -2038.8921      36.159773     -2002.7324      1482.3949      5277.9154      12.311354      21.32389       20.104357    
     27500   684.56273     -2039.11        38.137758     -2000.9722      1128.5768      5287.0732      12.31847       21.336216      20.115978    
     28000   605.28191     -2038.1663      33.720935     -2004.4454      1314.4609      5283.5672      12.315747      21.331499      20.11153     
     28500   655.38019     -2042.0959      36.511966     -2005.584       3959.0519      5267.2875      12.303085      21.309568      20.090853    
     29000   622.58194     -2038.38        34.684739     -2003.6952      6426.101       5265.7719      12.301904      21.307524      20.088926    
     29500   644.28232     -2037.584       35.893691     -2001.6903      7014.3401      5259.2492      12.296823      21.298722      20.080628    
     30000   665.2772      -2040.7356      37.06334      -2003.6723      3753.7992      5266.2894      12.302307      21.308222      20.089584    
     30500   627.395       -2041.1958      34.95288      -2006.2429      9058.6122      5251.0455      12.290426      21.287642      20.070181    
     31000   629.8109      -2040.0766      35.087472     -2004.9891      8815.1649      5252.2743      12.291384      21.289302      20.071747    
     31500   655.10959     -2038.5867      36.49689      -2002.0899      8783.4494      5255.6954      12.294052      21.293924      20.076104    
     32000   666.37604     -2040.9464      37.124557     -2003.8219      5932.1117      5268.501       12.304029      21.311204      20.092396    
     32500   613.75759     -2040.664       34.193125     -2006.4709      4313.2946      5267.6622      12.303376      21.310073      20.091329    
     33000   634.55114     -2040.1767      35.351556     -2004.8251      1514.8078      5268.128       12.303739      21.310701      20.091922    
     33500   653.12357     -2040.2918      36.386247     -2003.9055      3637.8007      5270.7765      12.3058        21.314272      20.095288    
     34000   693.62734     -2037.6584      38.642758     -1999.0157      3801.341       5281.2464      12.313943      21.328375      20.108585    
     34500   671.12047     -2039.5571      37.388874     -2002.1682      8846.8717      5260.6552      12.297919      21.30062       20.082417    
     35000   661.57737     -2041.2767      36.857218     -2004.4195      5828.9831      5264.1299      12.300626      21.305309      20.086838    
     35500   656.46581     -2042.982       36.572447     -2006.4095      1776.3611      5271.1433      12.306086      21.314766      20.095754    
     36000   643.10254     -2042.6879      35.827964     -2006.8599     -2184.953       5280.3853      12.313274      21.327216      20.107492    
     36500   662.48797     -2040.8107      36.907948     -2003.9027     -5194.7448      5298.1781      12.327089      21.351144      20.130051    
     37000   681.0709      -2040.2145      37.943224     -2002.2713     -4112.2457      5300.3078      12.32874       21.354004      20.132748    
     37500   621.15777     -2040.68        34.605396     -2006.0747     -5922.8966      5308.2716      12.334912      21.364694      20.142827    
     38000   645.05974     -2040.4306      35.937002     -2004.4936     -6681.6645      5306.9484      12.333887      21.362918      20.141153    
     38500   618.9466      -2037.6875      34.48221      -2003.2053     -5929.3565      5306.1686      12.333283      21.361872      20.140166    
     39000   679.20649     -2040.1045      37.839356     -2002.2652     -5627.1431      5301.5263      12.329685      21.355641      20.134291    
     39500   624.37031     -2040.3465      34.784371     -2005.5622     -1339.2849      5285.435       12.317198      21.334012      20.1139      
     40000   631.68681     -2039.7245      35.191981     -2004.5325      1890.5473      5276.9798      12.310626      21.32263       20.103169    
     40500   686.6357      -2041.3702      38.253246     -2003.1169      3224.8003      5271.3318      12.306233      21.31502       20.095994    
     41000   646.94663     -2042.7211      36.042123     -2006.6789      4462.6732      5263.7322      12.300316      21.304772      20.086332    
     41500   662.12484     -2044.2837      36.887718     -2007.396       3763.2033      5263.875       12.300427      21.304965      20.086513    
     42000   653.77944     -2041.1714      36.422786     -2004.7486      8198.0078      5260.386       12.297709      21.300257      20.082074    
     42500   663.31518     -2044.0259      36.954033     -2007.0719      4743.185       5263.5438      12.300169      21.304518      20.086092    
     43000   647.62186     -2044.5909      36.079741     -2008.5111      3483.5562      5260.4872      12.297788      21.300393      20.082203    
     43500   644.60572     -2044.688       35.911708     -2008.7763      570.60777      5273.1705      12.307663      21.317498      20.09833     
     44000   672.36441     -2042.648       37.458176     -2005.1899     -1099.2824      5275.3135      12.30933       21.320386      20.101052    
     44500   642.18575     -2040.3898      35.776889     -2004.6129      3030.0423      5269.2008      12.304574      21.312148      20.093285    
     45000   603.92904     -2043.593       33.645565     -2009.9474      3887.9015      5262.0237      12.298985      21.302467      20.084158    
     45500   624.9585      -2043.6922      34.817139     -2008.8751      2377.1587      5271.3355      12.306236      21.315025      20.095998    
     46000   655.84328     -2042.0845      36.537765     -2005.5467     -1721.3639      5289.2563      12.320165      21.339153      20.118746    
     46500   622.47076     -2039.4297      34.678544     -2004.7511      2475.2399      5273.4285      12.307864      21.317846      20.098658    
     47000   683.17879     -2042.4801      38.060657     -2004.4195      2981.8215      5273.3878      12.307832      21.317791      20.098606    
     47500   722.53852     -2042.7419      40.253432     -2002.4884      3319.2798      5267.5603      12.303297      21.309935      20.0912      
     48000   681.25726     -2043.6702      37.953607     -2005.7166      5375.3877      5252.2514      12.291367      21.289271      20.071717    
     48500   653.62435     -2041.8587      36.414146     -2005.4446      10711.019      5240.6481      12.282309      21.273582      20.056926    
     49000   747.44395     -2041.9439      41.640941     -2000.3029      9631.1997      5251.4201      12.290718      21.288148      20.070659    
     49500   676.58156     -2042.9061      37.693118     -2005.213       5959.5027      5257.1462      12.295184      21.295883      20.077951    
     50000   654.39231     -2042.7588      36.45693      -2006.3019      4859.1824      5269.8135      12.305051      21.312974      20.094064    
Loop time of 1246.4 on 8 procs for 50000 steps with 432 atoms

Performance: 3.466 ns/day, 6.924 hours/ns, 40.116 timesteps/s, 17.330 katom-step/s
93.5% CPU use with 1 MPI tasks x 8 OpenMP threads

MPI task timing breakdown:
Section |  min time  |  avg time  |  max time  |%varavg| %total
---------------------------------------------------------------
Pair    | 1184.2     | 1184.2     | 1184.2     |   0.0 | 95.01
Neigh   | 0.045109   | 0.045109   | 0.045109   |   0.0 |  0.00
Comm    | 0.76718    | 0.76718    | 0.76718    |   0.0 |  0.06
Output  | 0.011912   | 0.011912   | 0.011912   |   0.0 |  0.00
Modify  | 61.304     | 61.304     | 61.304     |   0.0 |  4.92
Other   |            | 0.1211     |            |       |  0.01

Nlocal:            432 ave         432 max         432 min
Histogram: 1 0 0 0 0 0 0 0 0 0
Nghost:           2689 ave        2689 max        2689 min
Histogram: 1 0 0 0 0 0 0 0 0 0
Neighs:          37105 ave       37105 max       37105 min
Histogram: 1 0 0 0 0 0 0 0 0 0
FullNghs:        74210 ave       74210 max       74210 min
Histogram: 1 0 0 0 0 0 0 0 0 0

Total # of neighbors = 74210
Ave neighs/atom = 171.78241
Neighbor list builds = 17
Dangerous builds = 0

=== FINAL RESULTS: DHCP at 650 K ===
Atoms: 432 | PE/atom: -4.72654790242385 eV/atom
WARNING: Detected non-ASCII characters in input. Will try to continue by replacing with ASCII equivalents where known. (src/input.cpp:479)
Volume: 5269.81353674924 …³ | Area: 262.257226636653 ²
==========================================
DHCP 650 432 -4.72654790242385 5269.81353674924 12.3050510109581 21.3129735425805 20.0940641534746 262.257226636653
Simulation complete!
Total wall time: 0:26:12
