LAMMPS (10 Sep 2025)
  using 8 OpenMP thread(s) per MPI task
Loaded 1 plugins from C:\Users\J.Shiva\AppData\Local\LAMMPS 64-bit 10Sep2025\plugins
using multi-threaded neighbor list subroutines
Reading data file ...
  orthogonal box = (0 0 0) to (21.48 21.48 21.48)
  1 by 1 by 1 MPI processor grid
  reading atoms ...
  864 atoms
  read_data CPU = 0.022 seconds
=== STAGE 1: Energy Minimization ===
Switching to 'neigh_modify every 1 delay 0 check yes' setting during minimization
No /omp style for force computation currently active
Neighbor list info ...
  update: every = 1 steps, delay = 0 steps, check = yes
  max neighbors/atom: 4000, page size: 100000
  master list distance cutoff = 8
  ghost atom cutoff = 8
  binsize = 4, bins = 6 6 6
  2 neighbor lists, perpetual/occasional/extra = 2 0 0
  (1) pair meam, perpetual
      attributes: full, newton on, omp
      pair build: full/bin/atomonly/omp
      stencil: full/bin/3d
      bin: standard
  (2) pair meam, perpetual, half/full from (1)
      attributes: half, newton on, omp
      pair build: halffull/newton/omp
      stencil: none
      bin: none
Setting up cg style minimization ...
  Unit style    : metal
  Current step  : 0
Per MPI rank memory allocation (min/avg/max) = 21.26 | 21.26 | 21.26 Mbytes
   Step          Temp          PotEng         KinEng         TotEng         Press          Volume           Lx             Ly             Lz      
         0   0             -4188.1707      0             -4188.1707      22704.38       9910.6658      21.48          21.48          21.48        
        14   0             -4200.7123      0             -4200.7123      22498.89       9910.6658      21.48          21.48          21.48        
Loop time of 0.72612 on 8 procs for 14 steps with 864 atoms

90.4% CPU use with 1 MPI tasks x 8 OpenMP threads

Minimization stats:
  Stopping criterion = energy tolerance
  Energy initial, next-to-last, final = 
     -4188.17070194749   -4200.7093710548  -4200.71231043304
  Force two-norm initial, final = 14.038761 0.17355161
  Force max component initial, final = 1.3415784 0.01546345
  Final line search alpha, max atom move = 1 0.01546345
  Iterations, force evaluations = 14 28

MPI task timing breakdown:
Section |  min time  |  avg time  |  max time  |%varavg| %total
---------------------------------------------------------------
Pair    | 0.71801    | 0.71801    | 0.71801    |   0.0 | 98.88
Neigh   | 0          | 0          | 0          |   0.0 |  0.00
Comm    | 0.000381   | 0.000381   | 0.000381   |   0.0 |  0.05
Output  | 0          | 0          | 0          |   0.0 |  0.00
Modify  | 0.007289   | 0.007289   | 0.007289   |   0.0 |  1.00
Other   |            | 0.000438   |            |       |  0.06

Nlocal:            864 ave         864 max         864 min
Histogram: 1 0 0 0 0 0 0 0 0 0
Nghost:           3767 ave        3767 max        3767 min
Histogram: 1 0 0 0 0 0 0 0 0 0
Neighs:          76032 ave       76032 max       76032 min
Histogram: 1 0 0 0 0 0 0 0 0 0
FullNghs:       152064 ave      152064 max      152064 min
Histogram: 1 0 0 0 0 0 0 0 0 0

Total # of neighbors = 152064
Ave neighs/atom = 176
Neighbor list builds = 0
Dangerous builds = 0
Minimized PE/atom: -4.86193554448268 eV/atom
=== STAGE 2: NPT Equilibration at 400 K ===
No /omp style for force computation currently active
Setting up Verlet run ...
  Unit style    : metal
  Current step  : 0
  Time step     : 0.002
Per MPI rank memory allocation (min/avg/max) = 20.25 | 20.25 | 20.25 Mbytes
   Step          Temp          PotEng         KinEng         TotEng         Press          Volume           Lx             Ly             Lz      
         0   400           -4200.7123      44.620602     -4156.0917      27307.856      9910.6658      21.48          21.48          21.48        
       500   364.66988     -4159.7383      40.679474     -4119.0589     -6611.479       10214.108      21.697023      21.697023      21.697023    
      1000   389.12272     -4158.3688      43.407225     -4114.9616      1542.5011      10163.898      21.661412      21.661412      21.661412    
      1500   402.25813     -4155.0572      44.8725       -4110.1847     -343.11238      10188.713      21.679027      21.679027      21.679027    
      2000   415.05686     -4155.2095      46.300217     -4108.9093     -3636.8812      10201.904      21.688378      21.688378      21.688378    
      2500   393.58496     -4155.5652      43.904995     -4111.6602      2466.4227      10166.253      21.663085      21.663085      21.663085    
      3000   387.55758     -4156.9682      43.232632     -4113.7356     -326.56589      10182.482      21.674607      21.674607      21.674607    
      3500   393.54324     -4156.7532      43.90034      -4112.8529     -1589.4206      10187.642      21.678267      21.678267      21.678267    
      4000   395.53321     -4155.2799      44.122325     -4111.1576      784.87329      10186.229      21.677265      21.677265      21.677265    
      4500   414.62911     -4155.1129      46.252502     -4108.8604      412.43159      10181.183      21.673685      21.673685      21.673685    
      5000   425.79436     -4155.6993      47.498001     -4108.2013     -5037.7233      10218.31       21.699998      21.699998      21.699998    
      5500   405.97512     -4157.1999      45.287136     -4111.9127      4155.0742      10155.629      21.655536      21.655536      21.655536    
      6000   376.78034     -4155.4319      42.030414     -4113.4015     -210.18792      10182.486      21.674609      21.674609      21.674609    
      6500   404.6211      -4155.8864      45.136093     -4110.7503     -3762.8608      10204.916      21.690512      21.690512      21.690512    
      7000   409.80671     -4156.7596      45.714556     -4111.045       5374.8657      10156.91       21.656447      21.656447      21.656447    
      7500   398.03632     -4156.8177      44.40155      -4112.4162     -3485.6292      10202.117      21.688529      21.688529      21.688529    
      8000   393.81254     -4157.8557      43.930382     -4113.9253      440.10778      10169.705      21.665537      21.665537      21.665537    
      8500   390.94739     -4159.0114      43.61077      -4115.4006     -1662.5213      10180.788      21.673404      21.673404      21.673404    
      9000   391.72643     -4155.172       43.697673     -4111.4743     -1065.0271      10191.582      21.681061      21.681061      21.681061    
      9500   416.7759      -4157.3796      46.491979     -4110.8876      1123.2307      10166.867      21.663521      21.663521      21.663521    
     10000   392.95059     -4154.6873      43.83423      -4110.853      -2775.8184      10203.317      21.68938       21.68938       21.68938     
     10500   392.10645     -4157.737       43.740064     -4113.9969      3479.3451      10157.537      21.656892      21.656892      21.656892    
     11000   389.6656      -4157.9845      43.467784     -4114.5167     -394.96702      10178.292      21.671633      21.671633      21.671633    
     11500   405.9837      -4158.7115      45.288093     -4113.4234     -2673.8301      10185.274      21.676587      21.676587      21.676587    
     12000   408.77826     -4157.3914      45.59983      -4111.7915      1412.869       10175.506      21.669655      21.669655      21.669655    
     12500   417.36965     -4155.0569      46.558213     -4108.4987     -1711.7747      10200.78       21.687581      21.687581      21.687581    
     13000   410.10404     -4153.9531      45.747723     -4108.2054      2050.8928      10176.094      21.670073      21.670073      21.670073    
     13500   382.19026     -4154.4573      42.633898     -4111.8234     -2671.0892      10206.068      21.691328      21.691328      21.691328    
     14000   403.6376      -4158.2625      45.026382     -4113.2361     -100.83762      10178.245      21.6716        21.6716        21.6716      
     14500   387.47796     -4156.8034      43.22375      -4113.5796      985.2323       10165.399      21.662478      21.662478      21.662478    
     15000   395.21183     -4155.6853      44.086475     -4111.5988     -4319.8997      10206.834      21.691871      21.691871      21.691871    
     15500   398.80046     -4154.5596      44.486792     -4110.0728      4270.0161      10165.064      21.66224       21.66224       21.66224     
     16000   393.13817     -4154.3832      43.855155     -4110.5281     -1588.3432      10198.091      21.685676      21.685676      21.685676    
     16500   391.03014     -4158.8226      43.620001     -4115.2026     -871.21281      10175.814      21.669874      21.669874      21.669874    
     17000   396.45552     -4156.009       44.22521      -4111.7838      854.89756      10174.712      21.669092      21.669092      21.669092    
     17500   396.64586     -4155.2798      44.246443     -4111.0334     -1585.9171      10193.568      21.682469      21.682469      21.682469    
     18000   419.76227     -4156.151       46.825113     -4109.3259      3874.7514      10162.401      21.660349      21.660349      21.660349    
     18500   402.74741     -4156.3348      44.92708      -4111.4077     -3790.2725      10202.933      21.689107      21.689107      21.689107    
     19000   409.16602     -4157.4438      45.643086     -4111.8007      2260.6135      10167.754      21.664151      21.664151      21.664151    
     19500   398.49857     -4157.5704      44.453115     -4113.1173      1130.8463      10177.889      21.671347      21.671347      21.671347    
     20000   365.68479     -4155.6241      40.792689     -4114.8314     -2799.7957      10193.667      21.68254       21.68254       21.68254     
Loop time of 593.85 on 8 procs for 20000 steps with 864 atoms

Performance: 5.820 ns/day, 4.124 hours/ns, 33.679 timesteps/s, 29.098 katom-step/s
94.1% CPU use with 1 MPI tasks x 8 OpenMP threads

MPI task timing breakdown:
Section |  min time  |  avg time  |  max time  |%varavg| %total
---------------------------------------------------------------
Pair    | 562.81     | 562.81     | 562.81     |   0.0 | 94.77
Neigh   | 0          | 0          | 0          |   0.0 |  0.00
Comm    | 0.2547     | 0.2547     | 0.2547     |   0.0 |  0.04
Output  | 0.003445   | 0.003445   | 0.003445   |   0.0 |  0.00
Modify  | 30.735     | 30.735     | 30.735     |   0.0 |  5.18
Other   |            | 0.04878    |            |       |  0.01

Nlocal:            864 ave         864 max         864 min
Histogram: 1 0 0 0 0 0 0 0 0 0
Nghost:           3767 ave        3767 max        3767 min
Histogram: 1 0 0 0 0 0 0 0 0 0
Neighs:          80835 ave       80835 max       80835 min
Histogram: 1 0 0 0 0 0 0 0 0 0
FullNghs:       161670 ave      161670 max      161670 min
Histogram: 1 0 0 0 0 0 0 0 0 0

Total # of neighbors = 161670
Ave neighs/atom = 187.11806
Neighbor list builds = 0
Dangerous builds = 0
=== STAGE 3: NPT Production at 400 K ===
No /omp style for force computation currently active
Setting up Verlet run ...
  Unit style    : metal
  Current step  : 0
  Time step     : 0.001
Per MPI rank memory allocation (min/avg/max) = 20.25 | 20.25 | 20.25 Mbytes
   Step          Temp          PotEng         KinEng         TotEng         Press          Volume           Lx             Ly             Lz      
         0   365.68479     -4155.6241      40.792689     -4114.8314     -2799.7957      10193.667      21.68254       21.68254       21.68254     
       500   390.36617     -4155.4879      43.545934     -4111.942       703.27315      10177.174      21.67084       21.67084       21.67084     
      1000   401.00147     -4155.4372      44.732317     -4110.7049      219.45136      10183.256      21.675156      21.675156      21.675156    
      1500   397.32717     -4155.9013      44.322444     -4111.5788     -1556.3589      10191.866      21.681262      21.681262      21.681262    
      2000   399.53012     -4157.5691      44.568186     -4113.0009      2594.1993      10162.141      21.660164      21.660164      21.660164    
      2500   381.86054     -4155.9517      42.597118     -4113.3546     -1663.8501      10185.64       21.676847      21.676847      21.676847    
      3000   392.77997     -4157.7478      43.815196     -4113.9326      175.13565      10174.237      21.668754      21.668754      21.668754    
      3500   385.01887     -4155.2835      42.949435     -4112.334       68.608244      10181.466      21.673885      21.673885      21.673885    
      4000   409.87023     -4156.4261      45.721641     -4110.7045     -2262.2683      10196.495      21.684544      21.684544      21.684544    
      4500   399.01862     -4156.1135      44.511127     -4111.6024      3663.6298      10158.503      21.657579      21.657579      21.657579    
      5000   376.62576     -4156.2863      42.013171     -4114.2731     -4212.7098      10202.112      21.688526      21.688526      21.688526    
      5500   406.5177      -4157.4504      45.347661     -4112.1027      170.31605      10179.112      21.672215      21.672215      21.672215    
      6000   428.76271     -4156.1656      47.829125     -4108.3365      4908.7112      10157.29       21.656717      21.656717      21.656717    
      6500   395.64899     -4154.836       44.135241     -4110.7007     -5791.8762      10215.776      21.698204      21.698204      21.698204    
      7000   392.67475     -4157.0066      43.80346      -4113.2031      1868.8192      10163.268      21.660965      21.660965      21.660965    
      7500   393.44635     -4158.1975      43.889532     -4114.3079     -589.35879      10181.361      21.673811      21.673811      21.673811    
      8000   408.53669     -4157.9932      45.572883     -4112.4203     -593.75137      10177.815      21.671294      21.671294      21.671294    
      8500   404.8242      -4155.9399      45.158749     -4110.7812     -852.77168      10184.859      21.676293      21.676293      21.676293    
      9000   403.01488     -4155.9517      44.956917     -4110.9947     -2400.4348      10191.956      21.681326      21.681326      21.681326    
      9500   407.16468     -4157.9577      45.419833     -4112.5378      1572.617       10173.244      21.66805       21.66805       21.66805     
     10000   394.33822     -4156.6707      43.989023     -4112.6817     -617.55055      10182.039      21.674292      21.674292      21.674292    
     10500   395.66916     -4156.5403      44.13749      -4112.4028     -310.72379      10177.289      21.670921      21.670921      21.670921    
     11000   403.45975     -4156.5355      45.006543     -4111.529      -508.27967      10182.451      21.674585      21.674585      21.674585    
     11500   407.12138     -4154.3512      45.415003     -4108.9362     -213.94448      10183.187      21.675106      21.675106      21.675106    
     12000   413.38097     -4156.567       46.11327      -4110.4537     -1963.5064      10188.582      21.678933      21.678933      21.678933    
     12500   387.44594     -4155.2705      43.220177     -4112.0503     -504.76308      10185.43       21.676698      21.676698      21.676698    
     13000   399.71227     -4154.6954      44.588505     -4110.1069      2670.9631      10164.139      21.661583      21.661583      21.661583    
     13500   409.23657     -4156.5799      45.650955     -4110.9289     -2152.8193      10195.623      21.683926      21.683926      21.683926    
     14000   387.39687     -4156.4776      43.214704     -4113.2629     -3164.3593      10193.506      21.682425      21.682425      21.682425    
     14500   408.27931     -4158.6896      45.544171     -4113.1454      5048.2072      10150.242      21.651706      21.651706      21.651706    
     15000   394.52157     -4155.6137      44.009474     -4111.6043     -1152.5399      10188.691      21.679011      21.679011      21.679011    
     15500   398.31903     -4157.2562      44.433088     -4112.8231     -4834.4317      10208.41       21.692987      21.692987      21.692987    
     16000   410.4336      -4159.3921      45.784486     -4113.6077      3042.5525      10157.528      21.656886      21.656886      21.656886    
     16500   374.45619     -4157.1444      41.771151     -4115.3732      147.63011      10172.621      21.667608      21.667608      21.667608    
     17000   386.18632     -4155.9092      43.079665     -4112.8295     -1599.9957      10193.71       21.68257       21.68257       21.68257     
     17500   387.68396     -4154.5186      43.24673      -4111.2719      1433.8526      10175.909      21.669941      21.669941      21.669941    
     18000   407.81073     -4157.0341      45.491901     -4111.5422     -655.43343      10190.189      21.680073      21.680073      21.680073    
     18500   396.28002     -4159.0591      44.205633     -4114.8535      448.31775      10166.601      21.663332      21.663332      21.663332    
     19000   404.69905     -4158.319       45.144789     -4113.1742     -255.70461      10176.356      21.670258      21.670258      21.670258    
     19500   410.34947     -4157.2763      45.775101     -4111.5012     -2271.9327      10195.462      21.683812      21.683812      21.683812    
     20000   399.8398      -4155.1345      44.602732     -4110.5317      7045.1442      10140.186      21.644554      21.644554      21.644554    
     20500   417.32732     -4157.3143      46.55349      -4110.7609     -7792.6191      10222.201      21.702752      21.702752      21.702752    
     21000   405.82151     -4157.0606      45.27         -4111.7906      2167.6736      10166.023      21.662921      21.662921      21.662921    
     21500   403.42022     -4158.0231      45.002133     -4113.0209      3185.6436      10151.638      21.652699      21.652699      21.652699    
     22000   374.31731     -4154.8065      41.755659     -4113.0509     -3294.6386      10196.098      21.684263      21.684263      21.684263    
     22500   407.83747     -4156.8479      45.494883     -4111.353       2292.0615      10161.551      21.659745      21.659745      21.659745    
     23000   407.25665     -4155.5275      45.430092     -4110.0974     -2164.3396      10197.213      21.685054      21.685054      21.685054    
     23500   407.89338     -4154.7132      45.50112      -4109.2121     -227.56821      10184.862      21.676295      21.676295      21.676295    
     24000   420.63706     -4155.9751      46.922697     -4109.0524      672.96178      10178.31       21.671646      21.671646      21.671646    
     24500   400.03917     -4157.0467      44.624971     -4112.4217      2277.8097      10168.068      21.664374      21.664374      21.664374    
     25000   390.94814     -4155.6652      43.610853     -4112.0544     -3536.5745      10204.308      21.690082      21.690082      21.690082    
     25500   421.04717     -4156.6061      46.968445     -4109.6377      4775.3498      10155.315      21.655313      21.655313      21.655313    
     26000   423.20902     -4155.9715      47.209603     -4108.7618     -1359.2664      10192.947      21.682029      21.682029      21.682029    
     26500   398.48731     -4154.7028      44.45186      -4110.2509      904.71396      10173.077      21.667931      21.667931      21.667931    
     27000   413.74815     -4158.0796      46.154229     -4111.9253     -1129.5544      10187.456      21.678135      21.678135      21.678135    
     27500   412.7976      -4156.9189      46.048193     -4110.8707      35.240355      10180.719      21.673355      21.673355      21.673355    
     28000   400.5483      -4152.9905      44.681766     -4108.3087      1813.1688      10174.507      21.668946      21.668946      21.668946    
     28500   410.76242     -4155.7546      45.821166     -4109.9335     -8461.2327      10234.562      21.711496      21.711496      21.711496    
     29000   398.00503     -4156.2344      44.39806      -4111.8363      5495.8718      10150.658      21.652002      21.652002      21.652002    
     29500   398.04545     -4156.7699      44.402569     -4112.3673      1510.9016      10168.287      21.664529      21.664529      21.664529    
     30000   392.28894     -4157.9992      43.760422     -4114.2388     -2519.9074      10188.684      21.679006      21.679006      21.679006    
     30500   410.701       -4156.9807      45.814314     -4111.1664      5329.3403      10147.909      21.650047      21.650047      21.650047    
     31000   404.29487     -4154.9429      45.099701     -4109.8432     -5529.6003      10213.436      21.696547      21.696547      21.696547    
     31500   394.20222     -4155.3389      43.973851     -4111.365       4046.3595      10159.569      21.658337      21.658337      21.658337    
     32000   393.85107     -4157.4331      43.93468      -4113.4984     -740.91527      10182.089      21.674328      21.674328      21.674328    
     32500   415.28432     -4157.543       46.32559      -4111.2174     -1427.4585      10188.99       21.679223      21.679223      21.679223    
     33000   399.32334     -4153.7078      44.54512      -4109.1626      2050.8831      10170.49       21.666094      21.666094      21.666094    
     33500   412.4158      -4153.9207      46.005603     -4107.9151     -303.46689      10189.917      21.67988       21.67988       21.67988     
     34000   414.53989     -4157.7278      46.242549     -4111.4853     -1999.266       10189.537      21.679611      21.679611      21.679611    
     34500   393.81634     -4157.9201      43.930806     -4113.9893      2409.6315      10161.804      21.659924      21.659924      21.659924    
     35000   397.47868     -4156.7413      44.339345     -4112.402      -4753.7065      10206.207      21.691427      21.691427      21.691427    
     35500   400.78743     -4156.2818      44.708441     -4111.5734      356.9685       10178.233      21.671591      21.671591      21.671591    
     36000   422.84615     -4155.9336      47.169125     -4108.7645      176.23207      10178.481      21.671767      21.671767      21.671767    
     36500   405.05488     -4158.2702      45.184481     -4113.0857     -1593.2402      10185.199      21.676534      21.676534      21.676534    
     37000   388.21253     -4157.0419      43.305692     -4113.7363     -1624.4884      10187.991      21.678515      21.678515      21.678515    
     37500   396.3588      -4155.0349      44.214421     -4110.8205      2022.2782      10175.536      21.669677      21.669677      21.669677    
     38000   402.35743     -4155.003       44.883577     -4110.1195     -1211.5089      10192.523      21.681729      21.681729      21.681729    
     38500   401.72033     -4157.0693      44.812508     -4112.2567      992.41818      10173.84       21.668473      21.668473      21.668473    
     39000   405.23329     -4156.0819      45.204383     -4110.8775     -3881.1432      10203.147      21.689259      21.689259      21.689259    
     39500   404.5748      -4152.7536      45.130928     -4107.6227      5686.4719      10155.408      21.655379      21.655379      21.655379    
     40000   398.98178     -4155.6528      44.507019     -4111.1458     -10335.09       10246.325      21.719811      21.719811      21.719811    
     40500   389.56326     -4155.6046      43.456368     -4112.1482      4840.2288      10149.415      21.651118      21.651118      21.651118    
     41000   394.9612      -4156.6115      44.058516     -4112.553      -899.60456      10190.487      21.680285      21.680285      21.680285    
     41500   411.26553     -4155.4451      45.877289     -4109.5678     -2545.6539      10197.572      21.685308      21.685308      21.685308    
     42000   413.84577     -4155.5878      46.165118     -4109.4227      2708.7619      10167.684      21.664101      21.664101      21.664101    
     42500   392.88136     -4157.0721      43.826507     -4113.2455     -3574.2603      10197.694      21.685394      21.685394      21.685394    
     43000   387.93531     -4154.5058      43.274768     -4111.231       2067.1805      10176.885      21.670634      21.670634      21.670634    
     43500   385.74993     -4155.4417      43.030985     -4112.4108      3785.3258      10156.755      21.656336      21.656336      21.656336    
     44000   386.85491     -4156.7645      43.154247     -4113.6103     -4457.5829      10201.687      21.688225      21.688225      21.688225    
     44500   405.06716     -4157.9206      45.185852     -4112.7348      1876.611       10170.088      21.665809      21.665809      21.665809    
     45000   404.89815     -4156.3644      45.166998     -4111.1974      340.71242      10178.13       21.671518      21.671518      21.671518    
     45500   407.10524     -4153.9832      45.413202     -4108.57        34.265693      10187.467      21.678142      21.678142      21.678142    
     46000   394.65212     -4153.3383      44.024038     -4109.3142      3136.8109      10167.38       21.663886      21.663886      21.663886    
     46500   410.51048     -4156.9889      45.793062     -4111.1958     -709.24877      10182.712      21.674769      21.674769      21.674769    
     47000   397.96631     -4157.7951      44.393741     -4113.4014     -1687.9542      10188.861      21.679131      21.679131      21.679131    
     47500   409.73701     -4157.2662      45.70678      -4111.5594      1190.0023      10168.902      21.664967      21.664967      21.664967    
     48000   425.5478      -4157.3563      47.470497     -4109.8858     -473.44161      10179.428      21.672439      21.672439      21.672439    
     48500   416.52028     -4154.8637      46.463465     -4108.4003     -2156.9809      10201.644      21.688194      21.688194      21.688194    
     49000   394.90227     -4157.5132      44.051942     -4113.4613      2320.1352      10170.247      21.665922      21.665922      21.665922    
     49500   403.80608     -4156.833       45.045176     -4111.7878      858.48671      10174.105      21.668661      21.668661      21.668661    
     50000   379.42806     -4156.4324      42.325771     -4114.1067     -2661.0562      10195.905      21.684126      21.684126      21.684126    
Loop time of 1464.76 on 8 procs for 50000 steps with 864 atoms

Performance: 2.949 ns/day, 8.138 hours/ns, 34.135 timesteps/s, 29.493 katom-step/s
94.2% CPU use with 1 MPI tasks x 8 OpenMP threads

MPI task timing breakdown:
Section |  min time  |  avg time  |  max time  |%varavg| %total
---------------------------------------------------------------
Pair    | 1397.4     | 1397.4     | 1397.4     |   0.0 | 95.40
Neigh   | 0          | 0          | 0          |   0.0 |  0.00
Comm    | 0.6279     | 0.6279     | 0.6279     |   0.0 |  0.04
Output  | 0.007182   | 0.007182   | 0.007182   |   0.0 |  0.00
Modify  | 66.606     | 66.606     | 66.606     |   0.0 |  4.55
Other   |            | 0.1233     |            |       |  0.01

Nlocal:            864 ave         864 max         864 min
Histogram: 1 0 0 0 0 0 0 0 0 0
Nghost:           3767 ave        3767 max        3767 min
Histogram: 1 0 0 0 0 0 0 0 0 0
Neighs:          78661 ave       78661 max       78661 min
Histogram: 1 0 0 0 0 0 0 0 0 0
FullNghs:       157322 ave      157322 max      157322 min
Histogram: 1 0 0 0 0 0 0 0 0 0

Total # of neighbors = 157322
Ave neighs/atom = 182.08565
Neighbor list builds = 0
Dangerous builds = 0

=== FINAL RESULTS: FCC at 400 K ===
Atoms: 864 | PE/atom: -4.81030219902561 eV/atom
WARNING: Detected non-ASCII characters in input. Will try to continue by replacing with ASCII equivalents where known. (src/input.cpp:479)
Volume: 10195.9047677393 …³ | Area: 470.201323186814 ²
==========================================
FCC 400 864 -4.81030219902561 10195.9047677393 21.6841260646311 21.6841260646311 21.6841260646311 470.201323186814
Simulation complete!
Total wall time: 0:34:19
